<?xml version="1.0" encoding="UTF-8"?>

<!-- generated on 06/25/21 10:12:57 by Eclipse SUMO sumo Version 1.8.0
<configuration xmlns:xsi="http://www.w3.org/2001/XMLSchema-instance" xsi:noNamespaceSchemaLocation="http://sumo.dlr.de/xsd/sumoConfiguration.xsd">

    <input>
        <net-file value="3\../BSD.net.xml"/>
        <route-files value="3\bsd_003.rou.xml"/>
        <additional-files value="3\dua_dump_003.add.xml"/>
    </input>

    <output>
        <summary-output value="3\summary_003.xml"/>
        <tripinfo-output value="3\tripinfo_003.xml"/>
    </output>

    <time>
        <begin value="0"/>
    </time>

    <processing>
        <route-steps value="200"/>
        <no-internal-links value="false"/>
        <time-to-teleport value="300"/>
        <time-to-teleport.highways value="0"/>
        <eager-insert value="false"/>
    </processing>

    <report>
        <verbose value="true"/>
        <no-warnings value="false"/>
        <log value="3\iteration_003.sumo.log"/>
        <no-step-log value="true"/>
    </report>

    <random_number>
        <random value="false"/>
    </random_number>

</configuration>
-->

<tripinfos xmlns:xsi="http://www.w3.org/2001/XMLSchema-instance" xsi:noNamespaceSchemaLocation="http://sumo.dlr.de/xsd/tripinfo_file.xsd">
    <tripinfo id="rute_8_4" depart="37.00" departLane="560361514#10_0" departPos="5.10" departSpeed="0.00" departDelay="12.00" arrival="63.00" arrivalLane="154148014#2_0" arrivalPos="6.55" arrivalSpeed="24.00" duration="26.00" routeLength="464.98" waitingTime="0.00" waitingCount="0" stopTime="0.00" timeLoss="9.17" rerouteNo="0" devices="tripinfo_rute_8_4" vType="DEFAULT_VEHTYPE" speedFactor="1.06" vaporized=""/>
    <tripinfo id="rute_11_10" depart="55.00" departLane="154148013#6_0" departPos="5.10" departSpeed="0.00" departDelay="30.00" arrival="80.00" arrivalLane="562021794#1_0" arrivalPos="11.24" arrivalSpeed="22.79" duration="25.00" routeLength="474.47" waitingTime="0.00" waitingCount="0" stopTime="0.00" timeLoss="6.42" rerouteNo="0" devices="tripinfo_rute_11_10" vType="DEFAULT_VEHTYPE" speedFactor="0.92" vaporized=""/>
    <tripinfo id="rute_4_8" depart="46.00" departLane="154148014#2_0" departPos="5.10" departSpeed="0.00" departDelay="21.00" arrival="81.00" arrivalLane="560361514#10_0" arrivalPos="202.28" arrivalSpeed="24.97" duration="35.00" routeLength="371.08" waitingTime="2.00" waitingCount="1" stopTime="0.00" timeLoss="18.07" rerouteNo="0" devices="tripinfo_rute_4_8" vType="DEFAULT_VEHTYPE" speedFactor="0.91" vaporized=""/>
    <tripinfo id="rute_3_4" depart="34.00" departLane="359246993#0_0" departPos="5.10" departSpeed="0.00" departDelay="9.00" arrival="83.00" arrivalLane="154148014#2_0" arrivalPos="6.55" arrivalSpeed="23.19" duration="49.00" routeLength="612.76" waitingTime="0.00" waitingCount="0" stopTime="0.00" timeLoss="17.67" rerouteNo="0" devices="tripinfo_rute_3_4" vType="DEFAULT_VEHTYPE" speedFactor="0.88" vaporized=""/>
    <tripinfo id="rute_12_13" depart="61.00" departLane="754594908#4_0" departPos="5.10" departSpeed="0.00" departDelay="36.00" arrival="91.00" arrivalLane="539383768#6_1" arrivalPos="45.63" arrivalSpeed="13.72" duration="30.00" routeLength="322.91" waitingTime="0.00" waitingCount="0" stopTime="0.00" timeLoss="17.50" rerouteNo="0" devices="tripinfo_rute_12_13" vType="DEFAULT_VEHTYPE" speedFactor="1.10" vaporized=""/>
    <tripinfo id="rute_4_1" depart="28.00" departLane="154148014#2_0" departPos="5.10" departSpeed="0.00" departDelay="3.00" arrival="93.00" arrivalLane="-484446266#8_0" arrivalPos="248.85" arrivalSpeed="4.37" duration="65.00" routeLength="1090.18" waitingTime="0.00" waitingCount="0" stopTime="0.00" timeLoss="20.37" rerouteNo="0" devices="tripinfo_rute_4_1" vType="DEFAULT_VEHTYPE" speedFactor="1.12" vaporized=""/>
    <tripinfo id="rute_4_2" depart="31.00" departLane="154148014#2_0" departPos="5.10" departSpeed="0.00" departDelay="6.00" arrival="94.00" arrivalLane="-675107653#5_0" arrivalPos="68.60" arrivalSpeed="12.88" duration="63.00" routeLength="1190.24" waitingTime="0.00" waitingCount="0" stopTime="0.00" timeLoss="12.08" rerouteNo="0" devices="tripinfo_rute_4_2" vType="DEFAULT_VEHTYPE" speedFactor="1.02" vaporized=""/>
    <tripinfo id="rute_9_1" depart="27.00" departLane="560361514#6_0" departPos="5.10" departSpeed="0.00" departDelay="2.00" arrival="99.00" arrivalLane="-484446266#8_0" arrivalPos="248.85" arrivalSpeed="10.57" duration="72.00" routeLength="1240.02" waitingTime="0.00" waitingCount="0" stopTime="0.00" timeLoss="21.66" rerouteNo="0" devices="tripinfo_rute_9_1" vType="DEFAULT_VEHTYPE" speedFactor="1.12" vaporized=""/>
    <tripinfo id="rute_15_14" depart="67.00" departLane="539383768#0_0" departPos="5.10" departSpeed="0.00" departDelay="42.00" arrival="99.00" arrivalLane="539383768#2_1" arrivalPos="239.65" arrivalSpeed="30.09" duration="32.00" routeLength="729.87" waitingTime="0.00" waitingCount="0" stopTime="0.00" timeLoss="8.28" rerouteNo="0" devices="tripinfo_rute_15_14" vType="DEFAULT_VEHTYPE" speedFactor="1.13" vaporized=""/>
    <tripinfo id="rute_10_2" depart="31.00" departLane="562021794#1_0" departPos="5.10" departSpeed="0.00" departDelay="6.00" arrival="101.00" arrivalLane="-675107653#5_0" arrivalPos="68.60" arrivalSpeed="13.73" duration="70.00" routeLength="1290.70" waitingTime="0.00" waitingCount="0" stopTime="0.00" timeLoss="17.13" rerouteNo="0" devices="tripinfo_rute_10_2" vType="DEFAULT_VEHTYPE" speedFactor="1.07" vaporized=""/>
    <tripinfo id="rute_14_13" depart="68.00" departLane="539383768#2_0" departPos="5.10" departSpeed="0.00" departDelay="43.00" arrival="107.00" arrivalLane="539383768#6_1" arrivalPos="45.63" arrivalSpeed="20.79" duration="39.00" routeLength="831.19" waitingTime="0.00" waitingCount="0" stopTime="0.00" timeLoss="10.77" rerouteNo="0" devices="tripinfo_rute_14_13" vType="DEFAULT_VEHTYPE" speedFactor="1.06" vaporized=""/>
    <tripinfo id="rute_8_1" depart="28.00" departLane="560361514#10_0" departPos="5.10" departSpeed="0.00" departDelay="3.00" arrival="108.00" arrivalLane="-484446266#8_0" arrivalPos="248.85" arrivalSpeed="15.17" duration="80.00" routeLength="1552.08" waitingTime="0.00" waitingCount="0" stopTime="0.00" timeLoss="19.72" rerouteNo="0" devices="tripinfo_rute_8_1" vType="DEFAULT_VEHTYPE" speedFactor="1.10" vaporized=""/>
    <tripinfo id="rute_3_8" depart="46.00" departLane="359246993#0_0" departPos="5.10" departSpeed="0.00" departDelay="21.00" arrival="110.00" arrivalLane="560361514#10_1" arrivalPos="202.28" arrivalSpeed="27.43" duration="64.00" routeLength="344.96" waitingTime="21.00" waitingCount="2" stopTime="0.00" timeLoss="47.08" rerouteNo="0" devices="tripinfo_rute_3_8" vType="DEFAULT_VEHTYPE" speedFactor="1.02" vaporized=""/>
    <tripinfo id="rute_9_8" depart="49.00" departLane="560361514#6_0" departPos="5.10" departSpeed="0.00" departDelay="24.00" arrival="112.00" arrivalLane="560361514#10_1" arrivalPos="202.28" arrivalSpeed="30.10" duration="63.00" routeLength="786.44" waitingTime="17.00" waitingCount="2" stopTime="0.00" timeLoss="37.83" rerouteNo="0" devices="tripinfo_rute_9_8" vType="DEFAULT_VEHTYPE" speedFactor="1.13" vaporized=""/>
    <tripinfo id="rute_9_4" depart="36.00" departLane="560361514#6_0" departPos="5.10" departSpeed="0.00" departDelay="11.00" arrival="118.00" arrivalLane="154148014#2_0" arrivalPos="6.55" arrivalSpeed="21.92" duration="82.00" routeLength="1054.24" waitingTime="15.00" waitingCount="2" stopTime="0.00" timeLoss="41.76" rerouteNo="0" devices="tripinfo_rute_9_4" vType="DEFAULT_VEHTYPE" speedFactor="0.95" vaporized=""/>
    <tripinfo id="rute_8_2" depart="31.00" departLane="560361514#10_0" departPos="5.10" departSpeed="0.00" departDelay="6.00" arrival="119.00" arrivalLane="-675107653#5_0" arrivalPos="68.60" arrivalSpeed="13.53" duration="88.00" routeLength="1652.14" waitingTime="0.00" waitingCount="0" stopTime="0.00" timeLoss="21.54" rerouteNo="0" devices="tripinfo_rute_8_2" vType="DEFAULT_VEHTYPE" speedFactor="1.03" vaporized=""/>
    <tripinfo id="rute_4_9" depart="49.00" departLane="154148014#2_0" departPos="5.10" departSpeed="0.00" departDelay="24.00" arrival="123.00" arrivalLane="560361514#6_0" arrivalPos="442.89" arrivalSpeed="28.67" duration="74.00" routeLength="1205.99" waitingTime="1.00" waitingCount="1" stopTime="0.00" timeLoss="29.65" rerouteNo="0" devices="tripinfo_rute_4_9" vType="DEFAULT_VEHTYPE" speedFactor="1.04" vaporized=""/>
    <tripinfo id="rute_9_2" depart="30.00" departLane="560361514#6_0" departPos="5.10" departSpeed="0.00" departDelay="5.00" arrival="123.00" arrivalLane="-675107653#5_0" arrivalPos="68.60" arrivalSpeed="12.85" duration="93.00" routeLength="1340.08" waitingTime="10.00" waitingCount="1" stopTime="0.00" timeLoss="34.31" rerouteNo="0" devices="tripinfo_rute_9_2" vType="DEFAULT_VEHTYPE" speedFactor="1.02" vaporized=""/>
    <tripinfo id="rute_6_12" depart="58.00" departLane="539383767#1_0" departPos="5.10" departSpeed="0.00" departDelay="33.00" arrival="125.00" arrivalLane="754594908#4_1" arrivalPos="190.58" arrivalSpeed="26.03" duration="67.00" routeLength="763.47" waitingTime="0.00" waitingCount="0" stopTime="0.00" timeLoss="14.22" rerouteNo="0" devices="tripinfo_rute_6_12" vType="DEFAULT_VEHTYPE" speedFactor="0.96" vaporized=""/>
    <tripinfo id="rute_8_9" depart="49.00" departLane="560361514#10_0" departPos="5.10" departSpeed="0.00" departDelay="24.00" arrival="128.00" arrivalLane="560361514#6_0" arrivalPos="442.89" arrivalSpeed="25.39" duration="79.00" routeLength="1667.89" waitingTime="0.00" waitingCount="0" stopTime="0.00" timeLoss="23.35" rerouteNo="0" devices="tripinfo_rute_8_9" vType="DEFAULT_VEHTYPE" speedFactor="1.12" vaporized=""/>
    <tripinfo id="rute_3_1" depart="28.00" departLane="359246993#0_0" departPos="5.10" departSpeed="0.00" departDelay="3.00" arrival="131.00" arrivalLane="-484446266#8_0" arrivalPos="248.85" arrivalSpeed="12.86" duration="103.00" routeLength="1070.99" waitingTime="24.00" waitingCount="1" stopTime="0.00" timeLoss="48.04" rerouteNo="0" devices="tripinfo_rute_3_1" vType="DEFAULT_VEHTYPE" speedFactor="1.00" vaporized=""/>
    <tripinfo id="rute_11_2" depart="31.00" departLane="154148013#6_0" departPos="5.10" departSpeed="0.00" departDelay="6.00" arrival="133.00" arrivalLane="-675107653#5_0" arrivalPos="68.60" arrivalSpeed="13.52" duration="102.00" routeLength="1759.03" waitingTime="8.00" waitingCount="1" stopTime="0.00" timeLoss="29.76" rerouteNo="0" devices="tripinfo_rute_11_2" vType="DEFAULT_VEHTYPE" speedFactor="1.03" vaporized=""/>
    <tripinfo id="rute_10_1" depart="28.00" departLane="562021794#1_0" departPos="5.10" departSpeed="0.00" departDelay="3.00" arrival="134.00" arrivalLane="-484446266#8_0" arrivalPos="248.85" arrivalSpeed="13.85" duration="106.00" routeLength="1560.88" waitingTime="14.00" waitingCount="1" stopTime="0.00" timeLoss="38.25" rerouteNo="0" devices="tripinfo_rute_10_1" vType="DEFAULT_VEHTYPE" speedFactor="1.00" vaporized=""/>
    <tripinfo id="rute_10_9" depart="65.00" departLane="562021794#1_0" departPos="5.10" departSpeed="0.00" departDelay="40.00" arrival="134.00" arrivalLane="560361514#6_1" arrivalPos="442.89" arrivalSpeed="31.42" duration="69.00" routeLength="1672.14" waitingTime="0.00" waitingCount="0" stopTime="0.00" timeLoss="16.16" rerouteNo="0" devices="tripinfo_rute_10_9" vType="DEFAULT_VEHTYPE" speedFactor="1.14" vaporized=""/>
    <tripinfo id="rute_10_4" depart="37.00" departLane="562021794#1_0" departPos="5.10" departSpeed="0.00" departDelay="12.00" arrival="137.00" arrivalLane="154148014#2_0" arrivalPos="6.55" arrivalSpeed="25.55" duration="100.00" routeLength="2288.59" waitingTime="0.00" waitingCount="0" stopTime="0.00" timeLoss="21.36" rerouteNo="0" devices="tripinfo_rute_10_4" vType="DEFAULT_VEHTYPE" speedFactor="1.06" vaporized=""/>
    <tripinfo id="rute_11_1" depart="28.00" departLane="154148013#6_0" departPos="5.10" departSpeed="0.00" departDelay="3.00" arrival="137.00" arrivalLane="-484446266#8_0" arrivalPos="248.85" arrivalSpeed="12.67" duration="109.00" routeLength="2029.21" waitingTime="2.00" waitingCount="1" stopTime="0.00" timeLoss="23.35" rerouteNo="0" devices="tripinfo_rute_11_1" vType="DEFAULT_VEHTYPE" speedFactor="1.00" vaporized=""/>
    <tripinfo id="rute_15_5" depart="40.00" departLane="539383768#0_0" departPos="5.10" departSpeed="0.00" departDelay="15.00" arrival="138.00" arrivalLane="230291072_0" arrivalPos="179.75" arrivalSpeed="13.18" duration="98.00" routeLength="1109.67" waitingTime="0.00" waitingCount="0" stopTime="0.00" timeLoss="31.91" rerouteNo="0" devices="tripinfo_rute_15_5" vType="DEFAULT_VEHTYPE" speedFactor="1.04" vaporized=""/>
    <tripinfo id="rute_11_9" depart="52.00" departLane="154148013#6_0" departPos="5.10" departSpeed="0.00" departDelay="27.00" arrival="143.00" arrivalLane="560361514#6_0" arrivalPos="442.89" arrivalSpeed="26.41" duration="91.00" routeLength="2140.47" waitingTime="0.00" waitingCount="0" stopTime="0.00" timeLoss="9.90" rerouteNo="0" devices="tripinfo_rute_11_9" vType="DEFAULT_VEHTYPE" speedFactor="0.96" vaporized=""/>
    <tripinfo id="rute_9_3" depart="33.00" departLane="560361514#6_0" departPos="5.10" departSpeed="0.00" departDelay="8.00" arrival="144.00" arrivalLane="359246993#0_0" arrivalPos="70.96" arrivalSpeed="5.02" duration="111.00" routeLength="890.89" waitingTime="15.00" waitingCount="2" stopTime="0.00" timeLoss="61.89" rerouteNo="0" devices="tripinfo_rute_9_3" vType="DEFAULT_VEHTYPE" speedFactor="1.00" vaporized=""/>
    <tripinfo id="rute_11_8" depart="49.00" departLane="154148013#6_0" departPos="5.10" departSpeed="0.00" departDelay="24.00" arrival="144.00" arrivalLane="560361514#10_1" arrivalPos="202.28" arrivalSpeed="31.07" duration="95.00" routeLength="2489.12" waitingTime="0.00" waitingCount="0" stopTime="0.00" timeLoss="15.80" rerouteNo="0" devices="tripinfo_rute_11_8" vType="DEFAULT_VEHTYPE" speedFactor="1.14" vaporized=""/>
    <tripinfo id="rute_15_4" depart="37.00" departLane="539383768#0_0" departPos="5.10" departSpeed="0.00" departDelay="12.00" arrival="144.00" arrivalLane="154148014#2_0" arrivalPos="6.55" arrivalSpeed="21.40" duration="107.00" routeLength="1967.39" waitingTime="0.00" waitingCount="0" stopTime="0.00" timeLoss="31.57" rerouteNo="0" devices="tripinfo_rute_15_4" vType="DEFAULT_VEHTYPE" speedFactor="0.99" vaporized=""/>
    <tripinfo id="rute_0_11" depart="55.00" departLane="-359409608_0" departPos="5.10" departSpeed="0.00" departDelay="30.00" arrival="146.00" arrivalLane="154148013#6_1" arrivalPos="327.33" arrivalSpeed="28.30" duration="91.00" routeLength="1252.42" waitingTime="0.00" waitingCount="0" stopTime="0.00" timeLoss="31.95" rerouteNo="0" devices="tripinfo_rute_0_11" vType="DEFAULT_VEHTYPE" speedFactor="1.09" vaporized=""/>
    <tripinfo id="rute_4_3" depart="34.00" departLane="154148014#2_0" departPos="5.10" departSpeed="0.00" departDelay="9.00" arrival="146.00" arrivalLane="359246993#0_0" arrivalPos="70.96" arrivalSpeed="6.59" duration="112.00" routeLength="748.89" waitingTime="29.00" waitingCount="2" stopTime="0.00" timeLoss="64.37" rerouteNo="0" devices="tripinfo_rute_4_3" vType="DEFAULT_VEHTYPE" speedFactor="0.99" vaporized=""/>
    <tripinfo id="rute_8_3" depart="34.00" departLane="560361514#10_0" departPos="5.10" departSpeed="0.00" departDelay="9.00" arrival="148.00" arrivalLane="359246993#0_0" arrivalPos="70.96" arrivalSpeed="11.93" duration="114.00" routeLength="1212.42" waitingTime="5.00" waitingCount="1" stopTime="0.00" timeLoss="50.90" rerouteNo="0" devices="tripinfo_rute_8_3" vType="DEFAULT_VEHTYPE" speedFactor="1.02" vaporized=""/>
    <tripinfo id="rute_12_14" depart="64.00" departLane="754594908#4_0" departPos="5.10" departSpeed="0.00" departDelay="39.00" arrival="151.00" arrivalLane="539383768#2_0" arrivalPos="239.65" arrivalSpeed="29.33" duration="87.00" routeLength="1839.62" waitingTime="2.00" waitingCount="1" stopTime="0.00" timeLoss="22.21" rerouteNo="0" devices="tripinfo_rute_12_14" vType="DEFAULT_VEHTYPE" speedFactor="1.07" vaporized=""/>
    <tripinfo id="rute_12_15" depart="67.00" departLane="754594908#4_0" departPos="5.10" departSpeed="0.00" departDelay="42.00" arrival="151.00" arrivalLane="539383768#0_0" arrivalPos="201.66" arrivalSpeed="27.00" duration="84.00" routeLength="1779.08" waitingTime="0.00" waitingCount="0" stopTime="0.00" timeLoss="17.84" rerouteNo="0" devices="tripinfo_rute_12_15" vType="DEFAULT_VEHTYPE" speedFactor="1.00" vaporized=""/>
    <tripinfo id="rute_3_2" depart="31.00" departLane="359246993#0_0" departPos="5.10" departSpeed="0.00" departDelay="6.00" arrival="154.00" arrivalLane="-675107653#5_0" arrivalPos="68.60" arrivalSpeed="12.19" duration="123.00" routeLength="1171.05" waitingTime="31.00" waitingCount="2" stopTime="0.00" timeLoss="59.33" rerouteNo="0" devices="tripinfo_rute_3_2" vType="DEFAULT_VEHTYPE" speedFactor="0.90" vaporized=""/>
    <tripinfo id="rute_7_13" depart="61.00" departLane="539383765#3_0" departPos="5.10" departSpeed="0.00" departDelay="36.00" arrival="155.00" arrivalLane="539383768#6_1" arrivalPos="45.63" arrivalSpeed="15.25" duration="94.00" routeLength="317.01" waitingTime="20.00" waitingCount="1" stopTime="0.00" timeLoss="72.20" rerouteNo="0" devices="tripinfo_rute_7_13" vType="DEFAULT_VEHTYPE" speedFactor="1.00" vaporized=""/>
    <tripinfo id="rute_11_4" depart="37.00" departLane="154148013#6_0" departPos="5.10" departSpeed="0.00" departDelay="12.00" arrival="155.00" arrivalLane="154148014#2_0" arrivalPos="6.55" arrivalSpeed="23.69" duration="118.00" routeLength="2756.92" waitingTime="0.00" waitingCount="0" stopTime="0.00" timeLoss="11.33" rerouteNo="0" devices="tripinfo_rute_11_4" vType="DEFAULT_VEHTYPE" speedFactor="0.94" vaporized=""/>
    <tripinfo id="rute_10_3" depart="34.00" departLane="562021794#1_0" departPos="5.10" departSpeed="0.00" departDelay="9.00" arrival="156.00" arrivalLane="359246993#0_0" arrivalPos="70.96" arrivalSpeed="11.86" duration="122.00" routeLength="2125.24" waitingTime="0.00" waitingCount="0" stopTime="0.00" timeLoss="19.27" rerouteNo="0" devices="tripinfo_rute_10_3" vType="DEFAULT_VEHTYPE" speedFactor="0.93" vaporized=""/>
    <tripinfo id="rute_8_15" depart="71.00" departLane="560361514#10_0" departPos="5.10" departSpeed="0.00" departDelay="46.00" arrival="158.00" arrivalLane="539383768#0_2" arrivalPos="201.66" arrivalSpeed="33.87" duration="87.00" routeLength="2021.71" waitingTime="0.00" waitingCount="0" stopTime="0.00" timeLoss="24.78" rerouteNo="0" devices="tripinfo_rute_8_15" vType="DEFAULT_VEHTYPE" speedFactor="1.23" vaporized=""/>
    <tripinfo id="rute_2_9" depart="51.00" departLane="-675107653#5_0" departPos="5.10" departSpeed="0.00" departDelay="26.00" arrival="161.00" arrivalLane="560361514#6_0" arrivalPos="442.89" arrivalSpeed="29.78" duration="110.00" routeLength="1922.27" waitingTime="1.00" waitingCount="1" stopTime="0.00" timeLoss="34.31" rerouteNo="0" devices="tripinfo_rute_2_9" vType="DEFAULT_VEHTYPE" speedFactor="1.10" vaporized=""/>
    <tripinfo id="rute_10_8" depart="62.00" departLane="562021794#1_0" departPos="5.10" departSpeed="0.00" departDelay="37.00" arrival="162.00" arrivalLane="560361514#10_0" arrivalPos="202.28" arrivalSpeed="24.02" duration="100.00" routeLength="2020.79" waitingTime="0.00" waitingCount="0" stopTime="0.00" timeLoss="19.78" rerouteNo="0" devices="tripinfo_rute_10_8" vType="DEFAULT_VEHTYPE" speedFactor="0.91" vaporized=""/>
    <tripinfo id="rute_13_6" depart="40.00" departLane="539383768#6_0" departPos="5.10" departSpeed="0.00" departDelay="15.00" arrival="162.00" arrivalLane="539383767#1_0" arrivalPos="58.17" arrivalSpeed="11.07" duration="122.00" routeLength="925.71" waitingTime="52.00" waitingCount="2" stopTime="0.00" timeLoss="78.09" rerouteNo="0" devices="tripinfo_rute_13_6" vType="DEFAULT_VEHTYPE" speedFactor="0.87" vaporized=""/>
    <tripinfo id="rute_4_5" depart="37.00" departLane="154148014#2_0" departPos="5.10" departSpeed="0.00" departDelay="12.00" arrival="163.00" arrivalLane="230291072_0" arrivalPos="179.75" arrivalSpeed="12.57" duration="126.00" routeLength="1479.25" waitingTime="0.00" waitingCount="0" stopTime="0.00" timeLoss="17.12" rerouteNo="0" devices="tripinfo_rute_4_5" vType="DEFAULT_VEHTYPE" speedFactor="0.94" vaporized=""/>
    <tripinfo id="rute_2_1" depart="28.00" departLane="-675107653#5_0" departPos="5.10" departSpeed="0.00" departDelay="3.00" arrival="165.00" arrivalLane="-484446266#8_0" arrivalPos="248.85" arrivalSpeed="14.87" duration="137.00" routeLength="1811.01" waitingTime="6.00" waitingCount="2" stopTime="0.00" timeLoss="57.19" rerouteNo="0" devices="tripinfo_rute_2_1" vType="DEFAULT_VEHTYPE" speedFactor="1.15" vaporized=""/>
    <tripinfo id="rute_8_5" depart="40.00" departLane="560361514#10_0" departPos="5.10" departSpeed="0.00" departDelay="15.00" arrival="166.00" arrivalLane="230291072_0" arrivalPos="179.75" arrivalSpeed="15.81" duration="126.00" routeLength="1941.69" waitingTime="0.00" waitingCount="0" stopTime="0.00" timeLoss="21.91" rerouteNo="0" devices="tripinfo_rute_8_5" vType="DEFAULT_VEHTYPE" speedFactor="1.15" vaporized=""/>
    <tripinfo id="rute_10_0" depart="25.00" departLane="562021794#1_0" departPos="5.10" departSpeed="0.00" departDelay="0.00" arrival="168.00" arrivalLane="-359409608_0" arrivalPos="135.48" arrivalSpeed="12.42" duration="143.00" routeLength="1864.03" waitingTime="16.00" waitingCount="1" stopTime="0.00" timeLoss="50.08" rerouteNo="0" devices="tripinfo_rute_10_0" vType="DEFAULT_VEHTYPE" speedFactor="0.96" vaporized=""/>
    <tripinfo id="rute_2_0" depart="25.00" departLane="-675107653#5_0" departPos="5.10" departSpeed="0.00" departDelay="0.00" arrival="169.00" arrivalLane="-359409608_0" arrivalPos="135.48" arrivalSpeed="14.68" duration="144.00" routeLength="2108.53" waitingTime="5.00" waitingCount="1" stopTime="0.00" timeLoss="52.14" rerouteNo="0" devices="tripinfo_rute_2_0" vType="DEFAULT_VEHTYPE" speedFactor="1.18" vaporized=""/>
    <tripinfo id="rute_11_3" depart="34.00" departLane="154148013#6_0" departPos="5.10" departSpeed="0.00" departDelay="9.00" arrival="169.00" arrivalLane="359246993#0_0" arrivalPos="70.96" arrivalSpeed="13.34" duration="135.00" routeLength="2593.57" waitingTime="0.00" waitingCount="0" stopTime="0.00" timeLoss="21.68" rerouteNo="0" devices="tripinfo_rute_11_3" vType="DEFAULT_VEHTYPE" speedFactor="0.98" vaporized=""/>
    <tripinfo id="rute_15_1" depart="28.00" departLane="539383768#0_0" departPos="5.10" departSpeed="0.00" departDelay="3.00" arrival="169.00" arrivalLane="-484446266#8_0" arrivalPos="248.85" arrivalSpeed="16.86" duration="141.00" routeLength="3054.49" waitingTime="0.00" waitingCount="0" stopTime="0.00" timeLoss="41.98" rerouteNo="0" devices="tripinfo_rute_15_1" vType="DEFAULT_VEHTYPE" speedFactor="1.24" vaporized=""/>
    <tripinfo id="rute_3_9" depart="49.00" departLane="359246993#0_0" departPos="5.10" departSpeed="0.00" departDelay="24.00" arrival="170.00" arrivalLane="560361514#6_0" arrivalPos="442.89" arrivalSpeed="29.46" duration="121.00" routeLength="1186.80" waitingTime="31.00" waitingCount="3" stopTime="0.00" timeLoss="73.48" rerouteNo="0" devices="tripinfo_rute_3_9" vType="DEFAULT_VEHTYPE" speedFactor="1.10" vaporized=""/>
    <tripinfo id="rute_2_8" depart="48.00" departLane="-675107653#5_0" departPos="5.10" departSpeed="0.00" departDelay="23.00" arrival="174.00" arrivalLane="560361514#10_1" arrivalPos="202.28" arrivalSpeed="31.74" duration="126.00" routeLength="2270.92" waitingTime="1.00" waitingCount="1" stopTime="0.00" timeLoss="44.15" rerouteNo="0" devices="tripinfo_rute_2_8" vType="DEFAULT_VEHTYPE" speedFactor="1.18" vaporized=""/>
    <tripinfo id="rute_1_2" depart="28.00" departLane="-484446266#8_0" departPos="5.10" departSpeed="0.00" departDelay="3.00" arrival="175.00" arrivalLane="-675107653#5_0" arrivalPos="68.60" arrivalSpeed="11.79" duration="147.00" routeLength="852.46" waitingTime="56.00" waitingCount="2" stopTime="0.00" timeLoss="79.55" rerouteNo="0" devices="tripinfo_rute_1_2" vType="DEFAULT_VEHTYPE" speedFactor="0.88" vaporized=""/>
    <tripinfo id="rute_2_4" depart="34.00" departLane="-675107653#5_0" departPos="5.10" departSpeed="0.00" departDelay="9.00" arrival="175.00" arrivalLane="154148014#2_0" arrivalPos="6.55" arrivalSpeed="25.96" duration="141.00" routeLength="2538.72" waitingTime="4.00" waitingCount="1" stopTime="0.00" timeLoss="49.81" rerouteNo="0" devices="tripinfo_rute_2_4" vType="DEFAULT_VEHTYPE" speedFactor="1.17" vaporized=""/>
    <tripinfo id="rute_12_5" depart="40.00" departLane="754594908#4_0" departPos="5.10" departSpeed="0.00" departDelay="15.00" arrival="175.00" arrivalLane="230291072_0" arrivalPos="179.75" arrivalSpeed="11.59" duration="135.00" routeLength="2192.63" waitingTime="1.00" waitingCount="1" stopTime="0.00" timeLoss="20.19" rerouteNo="0" devices="tripinfo_rute_12_5" vType="DEFAULT_VEHTYPE" speedFactor="0.92" vaporized=""/>
    <tripinfo id="rute_6_13" depart="61.00" departLane="539383767#1_0" departPos="5.10" departSpeed="0.00" departDelay="36.00" arrival="176.00" arrivalLane="539383768#6_0" arrivalPos="45.63" arrivalSpeed="17.14" duration="115.00" routeLength="908.96" waitingTime="14.00" waitingCount="2" stopTime="0.00" timeLoss="46.67" rerouteNo="0" devices="tripinfo_rute_6_13" vType="DEFAULT_VEHTYPE" speedFactor="0.97" vaporized=""/>
    <tripinfo id="rute_11_0" depart="25.00" departLane="154148013#6_0" departPos="5.10" departSpeed="0.00" departDelay="0.00" arrival="176.00" arrivalLane="-359409608_0" arrivalPos="135.48" arrivalSpeed="11.99" duration="151.00" routeLength="1539.72" waitingTime="34.00" waitingCount="1" stopTime="0.00" timeLoss="64.95" rerouteNo="0" devices="tripinfo_rute_11_0" vType="DEFAULT_VEHTYPE" speedFactor="0.91" vaporized=""/>
    <tripinfo id="rute_5_15" depart="67.00" departLane="230291072_0" departPos="5.10" departSpeed="0.00" departDelay="42.00" arrival="177.00" arrivalLane="539383768#0_0" arrivalPos="201.66" arrivalSpeed="28.25" duration="110.00" routeLength="1010.36" waitingTime="7.00" waitingCount="2" stopTime="0.00" timeLoss="40.91" rerouteNo="0" devices="tripinfo_rute_5_15" vType="DEFAULT_VEHTYPE" speedFactor="1.02" vaporized=""/>
    <tripinfo id="rute_8_14" depart="65.00" departLane="560361514#10_0" departPos="5.10" departSpeed="0.00" departDelay="40.00" arrival="178.00" arrivalLane="539383768#2_1" arrivalPos="239.65" arrivalSpeed="28.34" duration="113.00" routeLength="2555.02" waitingTime="0.00" waitingCount="0" stopTime="0.00" timeLoss="21.67" rerouteNo="0" devices="tripinfo_rute_8_14" vType="DEFAULT_VEHTYPE" speedFactor="1.04" vaporized=""/>
    <tripinfo id="rute_5_4" depart="37.00" departLane="230291072_0" departPos="5.10" departSpeed="0.00" departDelay="12.00" arrival="179.00" arrivalLane="154148014#2_1" arrivalPos="6.55" arrivalSpeed="22.56" duration="142.00" routeLength="1782.69" waitingTime="5.00" waitingCount="1" stopTime="0.00" timeLoss="41.49" rerouteNo="0" devices="tripinfo_rute_5_4" vType="DEFAULT_VEHTYPE" speedFactor="1.09" vaporized=""/>
    <tripinfo id="rute_12_7" depart="46.00" departLane="754594908#4_0" departPos="5.10" departSpeed="0.00" departDelay="21.00" arrival="181.00" arrivalLane="539383765#3_0" arrivalPos="264.82" arrivalSpeed="7.87" duration="135.00" routeLength="830.55" waitingTime="8.00" waitingCount="1" stopTime="0.00" timeLoss="74.73" rerouteNo="0" devices="tripinfo_rute_12_7" vType="DEFAULT_VEHTYPE" speedFactor="0.89" vaporized=""/>
    <tripinfo id="rute_15_8" depart="49.00" departLane="539383768#0_0" departPos="5.10" departSpeed="0.00" departDelay="24.00" arrival="181.00" arrivalLane="560361514#10_0" arrivalPos="202.28" arrivalSpeed="29.50" duration="132.00" routeLength="2337.02" waitingTime="1.00" waitingCount="1" stopTime="0.00" timeLoss="54.25" rerouteNo="0" devices="tripinfo_rute_15_8" vType="DEFAULT_VEHTYPE" speedFactor="1.15" vaporized=""/>
    <tripinfo id="rute_12_4" depart="37.00" departLane="754594908#4_0" departPos="5.10" departSpeed="0.00" departDelay="12.00" arrival="182.00" arrivalLane="154148014#2_0" arrivalPos="6.55" arrivalSpeed="21.39" duration="145.00" routeLength="3050.35" waitingTime="0.00" waitingCount="0" stopTime="0.00" timeLoss="27.11" rerouteNo="0" devices="tripinfo_rute_12_4" vType="DEFAULT_VEHTYPE" speedFactor="0.94" vaporized=""/>
    <tripinfo id="rute_15_2" depart="31.00" departLane="539383768#0_0" departPos="5.10" departSpeed="0.00" departDelay="6.00" arrival="182.00" arrivalLane="-675107653#5_0" arrivalPos="68.60" arrivalSpeed="14.25" duration="151.00" routeLength="3154.55" waitingTime="0.00" waitingCount="0" stopTime="0.00" timeLoss="38.19" rerouteNo="0" devices="tripinfo_rute_15_2" vType="DEFAULT_VEHTYPE" speedFactor="1.11" vaporized=""/>
    <tripinfo id="rute_13_7" depart="44.00" departLane="539383768#6_0" departPos="5.10" departSpeed="0.00" departDelay="19.00" arrival="183.00" arrivalLane="539383765#3_0" arrivalPos="264.82" arrivalSpeed="9.38" duration="139.00" routeLength="837.01" waitingTime="10.00" waitingCount="2" stopTime="0.00" timeLoss="87.92" rerouteNo="0" devices="tripinfo_rute_13_7" vType="DEFAULT_VEHTYPE" speedFactor="1.04" vaporized=""/>
    <tripinfo id="rute_14_7" depart="46.00" departLane="539383768#2_0" departPos="5.10" departSpeed="0.00" departDelay="21.00" arrival="185.00" arrivalLane="539383765#3_0" arrivalPos="264.82" arrivalSpeed="11.04" duration="139.00" routeLength="1325.63" waitingTime="6.00" waitingCount="1" stopTime="0.00" timeLoss="72.67" rerouteNo="0" devices="tripinfo_rute_14_7" vType="DEFAULT_VEHTYPE" speedFactor="1.07" vaporized=""/>
    <tripinfo id="rute_5_14" depart="64.00" departLane="230291072_0" departPos="5.10" departSpeed="0.00" departDelay="39.00" arrival="186.00" arrivalLane="539383768#2_0" arrivalPos="239.65" arrivalSpeed="27.21" duration="122.00" routeLength="1543.67" waitingTime="2.00" waitingCount="1" stopTime="0.00" timeLoss="34.06" rerouteNo="0" devices="tripinfo_rute_5_14" vType="DEFAULT_VEHTYPE" speedFactor="1.01" vaporized=""/>