<?xml version="1.0" encoding="UTF-8"?>

<!-- generated on 06/13/21 15:59:22 by Eclipse SUMO sumo Version 1.8.0
<configuration xmlns:xsi="http://www.w3.org/2001/XMLSchema-instance" xsi:noNamespaceSchemaLocation="http://sumo.dlr.de/xsd/sumoConfiguration.xsd">

    <input>
        <net-file value="0\../BSD.net.xml"/>
        <route-files value="0\bsd_000.rou.xml"/>
        <additional-files value="0\dua_dump_000.add.xml"/>
    </input>

    <output>
        <summary-output value="0\summary_000.xml"/>
        <tripinfo-output value="0\tripinfo_000.xml"/>
    </output>

    <time>
        <begin value="0"/>
    </time>

    <processing>
        <route-steps value="200"/>
        <no-internal-links value="false"/>
        <time-to-teleport value="300"/>
        <time-to-teleport.highways value="0"/>
        <eager-insert value="false"/>
    </processing>

    <report>
        <verbose value="true"/>
        <no-warnings value="false"/>
        <log value="0\iteration_000.sumo.log"/>
        <no-step-log value="true"/>
    </report>

    <random_number>
        <random value="false"/>
    </random_number>

</configuration>
-->

<tripinfos xmlns:xsi="http://www.w3.org/2001/XMLSchema-instance" xsi:noNamespaceSchemaLocation="http://sumo.dlr.de/xsd/tripinfo_file.xsd">
    <tripinfo id="veh5_2" depart="25.00" departLane="539383765#3_0" departPos="5.10" departSpeed="0.00" departDelay="0.00" arrival="53.00" arrivalLane="539383768#6_1" arrivalPos="45.63" arrivalSpeed="14.69" duration="28.00" routeLength="317.01" waitingTime="0.00" waitingCount="0" stopTime="0.00" timeLoss="8.43" rerouteNo="0" devices="tripinfo_veh5_2" vType="DEFAULT_VEHTYPE" speedFactor="1.10" vaporized=""/>
    <tripinfo id="veh5_6" depart="25.00" departLane="562430406#8_0" departPos="5.10" departSpeed="0.00" departDelay="0.00" arrival="55.00" arrivalLane="562430406#8_0" arrivalPos="392.55" arrivalSpeed="14.19" duration="30.00" routeLength="387.45" waitingTime="0.00" waitingCount="0" stopTime="0.00" timeLoss="4.09" rerouteNo="0" devices="tripinfo_veh5_6" vType="DEFAULT_VEHTYPE" speedFactor="1.09" vaporized=""/>
    <tripinfo id="veh4_6" depart="25.00" departLane="539383768#0_0" departPos="5.10" departSpeed="0.00" departDelay="0.00" arrival="57.00" arrivalLane="539383768#2_0" arrivalPos="239.65" arrivalSpeed="31.91" duration="32.00" routeLength="729.87" waitingTime="0.00" waitingCount="0" stopTime="0.00" timeLoss="8.79" rerouteNo="0" devices="tripinfo_veh4_6" vType="DEFAULT_VEHTYPE" speedFactor="1.17" vaporized=""/>
    <tripinfo id="veh6_1" depart="25.00" departLane="560361514#6_0" departPos="5.10" departSpeed="0.00" departDelay="0.00" arrival="58.00" arrivalLane="560361514#10_0" arrivalPos="202.28" arrivalSpeed="30.04" duration="33.00" routeLength="786.44" waitingTime="0.00" waitingCount="0" stopTime="0.00" timeLoss="6.61" rerouteNo="0" devices="tripinfo_veh6_1" vType="DEFAULT_VEHTYPE" speedFactor="1.09" vaporized=""/>
    <tripinfo id="veh6_4" depart="25.00" departLane="-675107653#5_0" departPos="5.10" departSpeed="0.00" departDelay="0.00" arrival="71.00" arrivalLane="562021790#0_1" arrivalPos="53.64" arrivalSpeed="23.72" duration="46.00" routeLength="493.46" waitingTime="0.00" waitingCount="0" stopTime="0.00" timeLoss="10.75" rerouteNo="0" devices="tripinfo_veh6_4" vType="DEFAULT_VEHTYPE" speedFactor="0.88" vaporized=""/>
    <tripinfo id="veh1_2" depart="25.00" departLane="-362985261#6_0" departPos="5.10" departSpeed="0.00" departDelay="0.00" arrival="76.00" arrivalLane="362985244#7_0" arrivalPos="27.72" arrivalSpeed="12.19" duration="51.00" routeLength="475.60" waitingTime="0.00" waitingCount="0" stopTime="0.00" timeLoss="14.01" rerouteNo="0" devices="tripinfo_veh1_2" vType="DEFAULT_VEHTYPE" speedFactor="0.94" vaporized=""/>
    <tripinfo id="veh5_3" depart="25.00" departLane="539383768#6_0" departPos="5.10" departSpeed="0.00" departDelay="0.00" arrival="84.00" arrivalLane="539383762#7_0" arrivalPos="169.23" arrivalSpeed="11.72" duration="59.00" routeLength="662.31" waitingTime="0.00" waitingCount="0" stopTime="0.00" timeLoss="12.94" rerouteNo="0" devices="tripinfo_veh5_3" vType="DEFAULT_VEHTYPE" speedFactor="0.90" vaporized=""/>
    <tripinfo id="veh5_1" depart="25.00" departLane="754594908#4_0" departPos="5.10" departSpeed="0.00" departDelay="0.00" arrival="85.00" arrivalLane="539383765#3_0" arrivalPos="264.82" arrivalSpeed="15.73" duration="60.00" routeLength="830.55" waitingTime="0.00" waitingCount="0" stopTime="0.00" timeLoss="15.19" rerouteNo="0" devices="tripinfo_veh5_1" vType="DEFAULT_VEHTYPE" speedFactor="1.18" vaporized=""/>
    <tripinfo id="veh1_1" depart="25.00" departLane="781684931#0_0" departPos="5.10" departSpeed="0.00" departDelay="0.00" arrival="86.00" arrivalLane="-362985261#6_0" arrivalPos="61.07" arrivalSpeed="11.35" duration="61.00" routeLength="539.92" waitingTime="0.00" waitingCount="0" stopTime="0.00" timeLoss="14.35" rerouteNo="0" devices="tripinfo_veh1_1" vType="DEFAULT_VEHTYPE" speedFactor="0.89" vaporized=""/>
    <tripinfo id="veh4_1" depart="25.00" departLane="359246993#0_0" departPos="5.10" departSpeed="0.00" departDelay="0.00" arrival="86.00" arrivalLane="233703205#1_0" arrivalPos="81.35" arrivalSpeed="15.46" duration="61.00" routeLength="573.44" waitingTime="0.00" waitingCount="0" stopTime="0.00" timeLoss="22.45" rerouteNo="0" devices="tripinfo_veh4_1" vType="DEFAULT_VEHTYPE" speedFactor="1.13" vaporized=""/>
    <tripinfo id="veh0_2" depart="25.00" departLane="757450364#0_0" departPos="5.10" departSpeed="0.00" departDelay="0.00" arrival="87.00" arrivalLane="479199742#1_0" arrivalPos="409.63" arrivalSpeed="21.68" duration="62.00" routeLength="1125.80" waitingTime="0.00" waitingCount="0" stopTime="0.00" timeLoss="10.02" rerouteNo="0" devices="tripinfo_veh0_2" vType="DEFAULT_VEHTYPE" speedFactor="1.01" vaporized=""/>
    <tripinfo id="veh3_5" depart="25.00" departLane="359247300#1_0" departPos="5.10" departSpeed="0.00" departDelay="0.00" arrival="89.00" arrivalLane="563587627_0" arrivalPos="120.78" arrivalSpeed="11.83" duration="64.00" routeLength="631.35" waitingTime="0.00" waitingCount="0" stopTime="0.00" timeLoss="9.91" rerouteNo="0" devices="tripinfo_veh3_5" vType="DEFAULT_VEHTYPE" speedFactor="0.87" vaporized=""/>
    <tripinfo id="veh4_2" depart="25.00" departLane="233703205#1_0" departPos="5.10" departSpeed="0.00" departDelay="0.00" arrival="93.00" arrivalLane="359244608#0_0" arrivalPos="92.62" arrivalSpeed="12.81" duration="68.00" routeLength="706.62" waitingTime="0.00" waitingCount="0" stopTime="0.00" timeLoss="12.25" rerouteNo="0" devices="tripinfo_veh4_2" vType="DEFAULT_VEHTYPE" speedFactor="0.93" vaporized=""/>
    <tripinfo id="veh2_5" depart="25.00" departLane="168328152#0_0" departPos="5.10" departSpeed="0.00" departDelay="0.00" arrival="100.00" arrivalLane="396051491#3_0" arrivalPos="141.12" arrivalSpeed="24.91" duration="75.00" routeLength="1038.82" waitingTime="0.00" waitingCount="0" stopTime="0.00" timeLoss="27.78" rerouteNo="0" devices="tripinfo_veh2_5" vType="DEFAULT_VEHTYPE" speedFactor="0.94" vaporized=""/>
    <tripinfo id="veh3_4" depart="25.00" departLane="154148014#2_0" departPos="5.10" departSpeed="0.00" departDelay="0.00" arrival="102.00" arrivalLane="359247300#1_0" arrivalPos="219.61" arrivalSpeed="11.15" duration="77.00" routeLength="866.94" waitingTime="0.00" waitingCount="0" stopTime="0.00" timeLoss="18.28" rerouteNo="0" devices="tripinfo_veh3_4" vType="DEFAULT_VEHTYPE" speedFactor="0.83" vaporized=""/>
    <tripinfo id="veh6_2" depart="25.00" departLane="560361514#10_0" departPos="5.10" departSpeed="0.00" departDelay="0.00" arrival="106.00" arrivalLane="-484446266#8_0" arrivalPos="248.85" arrivalSpeed="12.60" duration="81.00" routeLength="1553.71" waitingTime="0.00" waitingCount="0" stopTime="0.00" timeLoss="13.74" rerouteNo="0" devices="tripinfo_veh6_2" vType="DEFAULT_VEHTYPE" speedFactor="1.00" vaporized=""/>
    <tripinfo id="veh7_4" depart="25.00" departLane="154148013#6_0" departPos="5.10" departSpeed="0.00" departDelay="0.00" arrival="106.00" arrivalLane="359247813#2_0" arrivalPos="275.45" arrivalSpeed="13.83" duration="81.00" routeLength="1307.70" waitingTime="0.00" waitingCount="0" stopTime="0.00" timeLoss="16.10" rerouteNo="0" devices="tripinfo_veh7_4" vType="DEFAULT_VEHTYPE" speedFactor="1.00" vaporized=""/>
    <tripinfo id="veh6_3" depart="25.00" departLane="-484446266#8_0" departPos="5.10" departSpeed="0.00" departDelay="0.00" arrival="108.00" arrivalLane="-675107653#5_0" arrivalPos="68.60" arrivalSpeed="11.49" duration="83.00" routeLength="852.46" waitingTime="0.00" waitingCount="0" stopTime="0.00" timeLoss="17.57" rerouteNo="0" devices="tripinfo_veh6_3" vType="DEFAULT_VEHTYPE" speedFactor="0.90" vaporized=""/>
    <tripinfo id="veh5_5" depart="25.00" departLane="539383767#1_0" departPos="5.10" departSpeed="0.00" departDelay="0.00" arrival="118.00" arrivalLane="562430406#8_0" arrivalPos="392.55" arrivalSpeed="12.37" duration="93.00" routeLength="1038.83" waitingTime="0.00" waitingCount="0" stopTime="0.00" timeLoss="13.57" rerouteNo="0" devices="tripinfo_veh5_5" vType="DEFAULT_VEHTYPE" speedFactor="0.96" vaporized=""/>
    <tripinfo id="veh4_3" depart="25.00" departLane="359244608#0_0" departPos="5.10" departSpeed="0.00" departDelay="0.00" arrival="124.00" arrivalLane="230291072_0" arrivalPos="179.75" arrivalSpeed="16.35" duration="99.00" routeLength="1157.60" waitingTime="0.00" waitingCount="0" stopTime="0.00" timeLoss="24.69" rerouteNo="0" devices="tripinfo_veh4_3" vType="DEFAULT_VEHTYPE" speedFactor="1.18" vaporized=""/>
    <tripinfo id="veh4_5" depart="25.00" departLane="233703186#0_0" departPos="5.10" departSpeed="0.00" departDelay="0.00" arrival="127.00" arrivalLane="539383768#0_0" arrivalPos="201.66" arrivalSpeed="27.48" duration="102.00" routeLength="1085.27" waitingTime="0.00" waitingCount="0" stopTime="0.00" timeLoss="28.04" rerouteNo="0" devices="tripinfo_veh4_5" vType="DEFAULT_VEHTYPE" speedFactor="1.01" vaporized=""/>
    <tripinfo id="veh3_3" depart="25.00" departLane="562549612#1_0" departPos="5.10" departSpeed="0.00" departDelay="0.00" arrival="129.00" arrivalLane="154148014#2_0" arrivalPos="6.55" arrivalSpeed="21.04" duration="104.00" routeLength="1569.75" waitingTime="0.00" waitingCount="0" stopTime="0.00" timeLoss="21.43" rerouteNo="0" devices="tripinfo_veh3_3" vType="DEFAULT_VEHTYPE" speedFactor="0.89" vaporized=""/>
    <tripinfo id="veh8_1" depart="25.00" departLane="359408298#2_0" departPos="5.10" departSpeed="0.00" departDelay="0.00" arrival="129.00" arrivalLane="-359409608_0" arrivalPos="135.48" arrivalSpeed="12.95" duration="104.00" routeLength="1192.12" waitingTime="0.00" waitingCount="0" stopTime="0.00" timeLoss="25.55" rerouteNo="0" devices="tripinfo_veh8_1" vType="DEFAULT_VEHTYPE" speedFactor="1.02" vaporized=""/>
    <tripinfo id="veh2_4" depart="25.00" departLane="363002237#4_0" departPos="5.10" departSpeed="0.00" departDelay="0.00" arrival="131.00" arrivalLane="168328152#0_0" arrivalPos="48.55" arrivalSpeed="12.27" duration="106.00" routeLength="1082.99" waitingTime="0.00" waitingCount="0" stopTime="0.00" timeLoss="27.92" rerouteNo="0" devices="tripinfo_veh2_4" vType="DEFAULT_VEHTYPE" speedFactor="0.94" vaporized=""/>
    <tripinfo id="veh0_3" depart="25.00" departLane="479199742#1_0" departPos="5.10" departSpeed="0.00" departDelay="0.00" arrival="139.00" arrivalLane="729152092#2_0" arrivalPos="908.74" arrivalSpeed="23.06" duration="114.00" routeLength="2527.84" waitingTime="0.00" waitingCount="0" stopTime="0.00" timeLoss="8.17" rerouteNo="0" devices="tripinfo_veh0_3" vType="DEFAULT_VEHTYPE" speedFactor="1.08" vaporized=""/>
    <tripinfo id="veh7_3" depart="25.00" departLane="766136200_0" departPos="5.10" departSpeed="0.00" departDelay="0.00" arrival="139.00" arrivalLane="154148013#6_0" arrivalPos="327.33" arrivalSpeed="29.43" duration="114.00" routeLength="2089.44" waitingTime="8.00" waitingCount="1" stopTime="0.00" timeLoss="42.40" rerouteNo="0" devices="tripinfo_veh7_3" vType="DEFAULT_VEHTYPE" speedFactor="1.10" vaporized=""/>
    <tripinfo id="veh4_4" depart="25.00" departLane="230291072_0" departPos="5.10" departSpeed="0.00" departDelay="0.00" arrival="144.00" arrivalLane="233703186#0_0" arrivalPos="230.12" arrivalSpeed="16.01" duration="119.00" routeLength="1423.07" waitingTime="0.00" waitingCount="0" stopTime="0.00" timeLoss="25.60" rerouteNo="0" devices="tripinfo_veh4_4" vType="DEFAULT_VEHTYPE" speedFactor="1.15" vaporized=""/>
    <tripinfo id="veh7_5" depart="25.00" departLane="359247813#2_0" departPos="5.10" departSpeed="0.00" departDelay="0.00" arrival="156.00" arrivalLane="398041366#1_0" arrivalPos="85.07" arrivalSpeed="12.62" duration="131.00" routeLength="1138.92" waitingTime="26.00" waitingCount="1" stopTime="0.00" timeLoss="55.24" rerouteNo="0" devices="tripinfo_veh7_5" vType="DEFAULT_VEHTYPE" speedFactor="1.00" vaporized=""/>
    <tripinfo id="veh5_4" depart="25.00" departLane="539383762#7_0" departPos="5.10" departSpeed="0.00" departDelay="0.00" arrival="161.00" arrivalLane="539383767#1_0" arrivalPos="58.17" arrivalSpeed="13.37" duration="136.00" routeLength="904.36" waitingTime="59.00" waitingCount="2" stopTime="0.00" timeLoss="90.37" rerouteNo="0" devices="tripinfo_veh5_4" vType="DEFAULT_VEHTYPE" speedFactor="1.03" vaporized=""/>
    <tripinfo id="veh7_2" depart="25.00" departLane="562021794#1_0" departPos="5.10" departSpeed="0.00" departDelay="0.00" arrival="163.00" arrivalLane="766136200_0" arrivalPos="53.47" arrivalSpeed="16.75" duration="138.00" routeLength="2407.81" waitingTime="16.00" waitingCount="1" stopTime="0.00" timeLoss="47.98" rerouteNo="0" devices="tripinfo_veh7_2" vType="DEFAULT_VEHTYPE" speedFactor="1.02" vaporized=""/>
    <tripinfo id="veh7_6" depart="25.00" departLane="398041366#1_0" departPos="5.10" departSpeed="0.00" departDelay="0.00" arrival="172.00" arrivalLane="-359409608_0" arrivalPos="135.48" arrivalSpeed="11.72" duration="147.00" routeLength="1695.34" waitingTime="6.00" waitingCount="1" stopTime="0.00" timeLoss="38.95" rerouteNo="0" devices="tripinfo_veh7_6" vType="DEFAULT_VEHTYPE" speedFactor="0.90" vaporized=""/>
    <tripinfo id="veh2_3" depart="25.00" departLane="358237489#0_0" departPos="5.10" departSpeed="0.00" departDelay="0.00" arrival="173.00" arrivalLane="363002237#4_0" arrivalPos="45.42" arrivalSpeed="11.48" duration="148.00" routeLength="1928.27" waitingTime="0.00" waitingCount="0" stopTime="0.00" timeLoss="29.19" rerouteNo="0" devices="tripinfo_veh2_3" vType="DEFAULT_VEHTYPE" speedFactor="0.88" vaporized=""/>
    <tripinfo id="veh6_5" depart="25.00" departLane="562021790#0_0" departPos="5.10" departSpeed="0.00" departDelay="0.00" arrival="178.00" arrivalLane="-359409608_0" arrivalPos="135.48" arrivalSpeed="11.39" duration="153.00" routeLength="1663.61" waitingTime="31.00" waitingCount="1" stopTime="0.00" timeLoss="58.14" rerouteNo="0" devices="tripinfo_veh6_5" vType="DEFAULT_VEHTYPE" speedFactor="0.85" vaporized=""/>
    <tripinfo id="veh5_7" depart="28.00" departLane="562430406#8_0" departPos="5.10" departSpeed="0.00" departDelay="3.00" arrival="179.00" arrivalLane="-359409608_0" arrivalPos="135.48" arrivalSpeed="14.07" duration="151.00" routeLength="1822.75" waitingTime="6.00" waitingCount="1" stopTime="0.00" timeLoss="54.02" rerouteNo="0" devices="tripinfo_veh5_7" vType="DEFAULT_VEHTYPE" speedFactor="1.04" vaporized=""/>
    <tripinfo id="veh2_6" depart="25.00" departLane="396051491#3_0" departPos="5.10" departSpeed="0.00" departDelay="0.00" arrival="182.00" arrivalLane="-359409608_0" arrivalPos="135.48" arrivalSpeed="15.06" duration="157.00" routeLength="3110.23" waitingTime="0.00" waitingCount="0" stopTime="0.00" timeLoss="41.24" rerouteNo="0" devices="tripinfo_veh2_6" vType="DEFAULT_VEHTYPE" speedFactor="1.16" vaporized=""/>
    <tripinfo id="veh3_2" depart="25.00" departLane="-563587585#0_0" departPos="5.10" departSpeed="0.00" departDelay="0.00" arrival="190.00" arrivalLane="562549612#1_0" arrivalPos="393.19" arrivalSpeed="13.20" duration="165.00" routeLength="2587.36" waitingTime="0.00" waitingCount="0" stopTime="0.00" timeLoss="28.04" rerouteNo="0" devices="tripinfo_veh3_2" vType="DEFAULT_VEHTYPE" speedFactor="0.98" vaporized=""/>
    <tripinfo id="veh3_1" depart="25.00" departLane="359247300#0_0" departPos="5.10" departSpeed="0.00" departDelay="0.00" arrival="202.00" arrivalLane="-563587585#0_0" arrivalPos="28.41" arrivalSpeed="12.96" duration="177.00" routeLength="3267.43" waitingTime="0.00" waitingCount="0" stopTime="0.00" timeLoss="39.34" rerouteNo="0" devices="tripinfo_veh3_1" vType="DEFAULT_VEHTYPE" speedFactor="1.01" vaporized=""/>
    <tripinfo id="veh0_4" depart="25.00" departLane="729152092#2_0" departPos="5.10" departSpeed="0.00" departDelay="0.00" arrival="205.00" arrivalLane="362347497#7_0" arrivalPos="149.91" arrivalSpeed="22.78" duration="180.00" routeLength="3777.39" waitingTime="0.00" waitingCount="0" stopTime="0.00" timeLoss="14.88" rerouteNo="0" devices="tripinfo_veh0_4" vType="DEFAULT_VEHTYPE" speedFactor="1.03" vaporized=""/>
    <tripinfo id="veh6_0" depart="43.00" departLane="-359409608_0" departPos="5.10" departSpeed="0.00" departDelay="18.00" arrival="206.00" arrivalLane="560361514#6_1" arrivalPos="442.89" arrivalSpeed="28.71" duration="163.00" routeLength="3070.66" waitingTime="3.00" waitingCount="1" stopTime="0.00" timeLoss="38.27" rerouteNo="0" devices="tripinfo_veh6_0" vType="DEFAULT_VEHTYPE" speedFactor="1.04" vaporized=""/>
    <tripinfo id="veh4_7" depart="25.00" departLane="539383768#2_0" departPos="5.10" departSpeed="0.00" departDelay="0.00" arrival="208.00" arrivalLane="359244597#1_0" arrivalPos="33.77" arrivalSpeed="13.21" duration="183.00" routeLength="3479.65" waitingTime="0.00" waitingCount="0" stopTime="0.00" timeLoss="32.18" rerouteNo="0" devices="tripinfo_veh4_7" vType="DEFAULT_VEHTYPE" speedFactor="0.99" vaporized=""/>
    <tripinfo id="veh0_1" depart="25.00" departLane="563175147#6_0" departPos="5.10" departSpeed="0.00" departDelay="0.00" arrival="222.00" arrivalLane="757450364#0_0" arrivalPos="86.62" arrivalSpeed="20.80" duration="197.00" routeLength="3508.85" waitingTime="5.00" waitingCount="1" stopTime="0.00" timeLoss="36.91" rerouteNo="0" devices="tripinfo_veh0_1" vType="DEFAULT_VEHTYPE" speedFactor="0.94" vaporized=""/>
    <tripinfo id="veh0_5" depart="25.00" departLane="362347497#7_0" departPos="5.10" departSpeed="0.00" departDelay="0.00" arrival="223.00" arrivalLane="-359409608_0" arrivalPos="135.48" arrivalSpeed="11.03" duration="198.00" routeLength="2298.75" waitingTime="34.00" waitingCount="1" stopTime="0.00" timeLoss="67.69" rerouteNo="0" devices="tripinfo_veh0_5" vType="DEFAULT_VEHTYPE" speedFactor="0.83" vaporized=""/>
    <tripinfo id="veh1_4" depart="25.00" departLane="363373882#0_0" departPos="5.10" departSpeed="0.00" departDelay="0.00" arrival="237.00" arrivalLane="-363359023#5_0" arrivalPos="55.81" arrivalSpeed="14.94" duration="212.00" routeLength="3277.08" waitingTime="0.00" waitingCount="0" stopTime="0.00" timeLoss="53.52" rerouteNo="0" devices="tripinfo_veh1_4" vType="DEFAULT_VEHTYPE" speedFactor="1.09" vaporized=""/>
    <tripinfo id="veh2_1" depart="25.00" departLane="676492822_0" departPos="5.10" departSpeed="0.00" departDelay="0.00" arrival="237.00" arrivalLane="403676096#0_0" arrivalPos="281.18" arrivalSpeed="12.67" duration="212.00" routeLength="3641.54" waitingTime="0.00" waitingCount="0" stopTime="0.00" timeLoss="46.05" rerouteNo="0" devices="tripinfo_veh2_1" vType="DEFAULT_VEHTYPE" speedFactor="0.99" vaporized=""/>
    <tripinfo id="veh3_0" depart="34.00" departLane="-359409608_0" departPos="5.10" departSpeed="0.00" departDelay="9.00" arrival="237.00" arrivalLane="359247300#0_0" arrivalPos="161.40" arrivalSpeed="14.09" duration="203.00" routeLength="3681.05" waitingTime="1.00" waitingCount="1" stopTime="0.00" timeLoss="45.27" rerouteNo="0" devices="tripinfo_veh3_0" vType="DEFAULT_VEHTYPE" speedFactor="1.02" vaporized=""/>
    <tripinfo id="veh0_0" depart="25.00" departLane="-359409608_0" departPos="5.10" departSpeed="0.00" departDelay="0.00" arrival="241.00" arrivalLane="563175147#6_0" arrivalPos="123.61" arrivalSpeed="23.04" duration="216.00" routeLength="2803.54" waitingTime="54.00" waitingCount="2" stopTime="0.00" timeLoss="95.85" rerouteNo="0" devices="tripinfo_veh0_0" vType="DEFAULT_VEHTYPE" speedFactor="1.06" vaporized=""/>
    <tripinfo id="veh7_0" depart="46.00" departLane="-359409608_0" departPos="5.10" departSpeed="0.00" departDelay="21.00" arrival="252.00" arrivalLane="-359408277#0_0" arrivalPos="175.18" arrivalSpeed="11.42" duration="206.00" routeLength="2191.66" waitingTime="0.00" waitingCount="0" stopTime="0.00" timeLoss="28.97" rerouteNo="0" devices="tripinfo_veh7_0" vType="DEFAULT_VEHTYPE" speedFactor="0.85" vaporized=""/>
    <tripinfo id="veh4_0" depart="37.00" departLane="-359409608_0" departPos="5.10" departSpeed="0.00" departDelay="12.00" arrival="258.00" arrivalLane="359246993#0_0" arrivalPos="70.96" arrivalSpeed="12.65" duration="221.00" routeLength="3523.76" waitingTime="0.00" waitingCount="0" stopTime="0.00" timeLoss="48.03" rerouteNo="0" devices="tripinfo_veh4_0" vType="DEFAULT_VEHTYPE" speedFactor="0.95" vaporized=""/>
    <tripinfo id="veh2_0" depart="31.00" departLane="-359409608_0" departPos="5.10" departSpeed="0.00" departDelay="6.00" arrival="272.00" arrivalLane="676492822_0" arrivalPos="72.78" arrivalSpeed="8.89" duration="241.00" routeLength="3715.62" waitingTime="9.00" waitingCount="1" stopTime="0.00" timeLoss="67.80" rerouteNo="0" devices="tripinfo_veh2_0" vType="DEFAULT_VEHTYPE" speedFactor="1.12" vaporized=""/>
    <tripinfo id="veh2_2" depart="25.00" departLane="403676096#0_0" departPos="5.10" departSpeed="0.00" departDelay="0.00" arrival="283.00" arrivalLane="358237489#0_0" arrivalPos="86.17" arrivalSpeed="12.21" duration="258.00" routeLength="3164.63" waitingTime="52.00" waitingCount="2" stopTime="0.00" timeLoss="98.56" rerouteNo="0" devices="tripinfo_veh2_2" vType="DEFAULT_VEHTYPE" speedFactor="0.93" vaporized=""/>
    <tripinfo id="veh1_6" depart="25.00" departLane="362985258#0_0" departPos="5.10" departSpeed="0.00" departDelay="0.00" arrival="312.00" arrivalLane="-359409608_0" arrivalPos="135.48" arrivalSpeed="13.51" duration="287.00" routeLength="5243.21" waitingTime="0.00" waitingCount="0" stopTime="0.00" timeLoss="60.09" rerouteNo="0" devices="tripinfo_veh1_6" vType="DEFAULT_VEHTYPE" speedFactor="1.05" vaporized=""/>
    <tripinfo id="veh7_1" depart="25.00" departLane="-359408277#0_0" departPos="5.10" departSpeed="0.00" departDelay="0.00" arrival="326.00" arrivalLane="562021794#1_0" arrivalPos="11.24" arrivalSpeed="13.52" duration="301.00" routeLength="1513.63" waitingTime="206.00" waitingCount="4" stopTime="0.00" timeLoss="246.01" rerouteNo="0" devices="tripinfo_veh7_1" vType="DEFAULT_VEHTYPE" speedFactor="1.17" vaporized=""/>
    <tripinfo id="veh5_0" depart="40.00" departLane="-359409608_0" departPos="5.10" departSpeed="0.00" departDelay="15.00" arrival="333.00" arrivalLane="754594908#4_0" arrivalPos="190.58" arrivalSpeed="26.50" duration="293.00" routeLength="2677.46" waitingTime="115.00" waitingCount="4" stopTime="0.00" timeLoss="170.08" rerouteNo="0" devices="tripinfo_veh5_0" vType="DEFAULT_VEHTYPE" speedFactor="0.97" vaporized=""/>
    <tripinfo id="veh3_6" depart="25.00" departLane="563587627_0" departPos="5.10" departSpeed="0.00" departDelay="0.00" arrival="350.00" arrivalLane="-359409608_0" arrivalPos="135.48" arrivalSpeed="11.49" duration="325.00" routeLength="4161.59" waitingTime="48.00" waitingCount="2" stopTime="0.00" timeLoss="100.60" rerouteNo="0" devices="tripinfo_veh3_6" vType="DEFAULT_VEHTYPE" speedFactor="0.92" vaporized=""/>
    <tripinfo id="veh4_8" depart="25.00" departLane="359244597#1_0" departPos="5.10" departSpeed="0.00" departDelay="0.00" arrival="352.00" arrivalLane="-359409608_0" arrivalPos="135.48" arrivalSpeed="12.98" duration="327.00" routeLength="4251.42" waitingTime="70.00" waitingCount="2" stopTime="0.00" timeLoss="135.21" rerouteNo="0" devices="tripinfo_veh4_8" vType="DEFAULT_VEHTYPE" speedFactor="1.02" vaporized=""/>
    <tripinfo id="veh8_0" depart="49.00" departLane="-359409608_0" departPos="5.10" departSpeed="0.00" departDelay="24.00" arrival="404.00" arrivalLane="359408298#2_0" arrivalPos="137.25" arrivalSpeed="15.33" duration="355.00" routeLength="1986.64" waitingTime="196.00" waitingCount="5" stopTime="0.00" timeLoss="264.12" rerouteNo="0" devices="tripinfo_veh8_0" vType="DEFAULT_VEHTYPE" speedFactor="1.14" vaporized=""/>
    <tripinfo id="veh1_5" depart="25.00" departLane="-363359023#5_0" departPos="5.10" departSpeed="0.00" departDelay="0.00" arrival="417.00" arrivalLane="362985258#0_0" arrivalPos="52.30" arrivalSpeed="13.10" duration="392.00" routeLength="6429.08" waitingTime="38.00" waitingCount="1" stopTime="0.00" timeLoss="106.16" rerouteNo="0" devices="tripinfo_veh1_5" vType="DEFAULT_VEHTYPE" speedFactor="1.03" vaporized=""/>
    <tripinfo id="veh1_3" depart="25.00" departLane="362985244#7_0" departPos="5.10" departSpeed="0.00" departDelay="0.00" arrival="422.00" arrivalLane="363373882#0_0" arrivalPos="12.94" arrivalSpeed="11.13" duration="397.00" routeLength="7145.09" waitingTime="2.00" waitingCount="1" stopTime="0.00" timeLoss="50.93" rerouteNo="0" devices="tripinfo_veh1_3" vType="DEFAULT_VEHTYPE" speedFactor="0.86" vaporized=""/>
    <tripinfo id="veh1_0" depart="28.00" departLane="-359409608_0" departPos="5.10" departSpeed="0.00" departDelay="3.00" arrival="441.00" arrivalLane="781684931#0_0" arrivalPos="57.29" arrivalSpeed="13.52" duration="413.00" routeLength="7573.86" waitingTime="54.00" waitingCount="3" stopTime="0.00" timeLoss="127.71" rerouteNo="0" devices="tripinfo_veh1_0" vType="DEFAULT_VEHTYPE" speedFactor="1.05" vaporized=""/>
</tripinfos>
