<?xml version="1.0" encoding="UTF-8"?>

<!-- generated on 06/04/21 21:39:21 by Eclipse SUMO sumo Version 1.8.0
<configuration xmlns:xsi="http://www.w3.org/2001/XMLSchema-instance" xsi:noNamespaceSchemaLocation="http://sumo.dlr.de/xsd/sumoConfiguration.xsd">

    <input>
        <net-file value="0\../BSD.net.xml"/>
        <route-files value="0\bsd_000.rou.xml"/>
        <additional-files value="0\dua_dump_000.add.xml"/>
    </input>

    <output>
        <summary-output value="0\summary_000.xml"/>
        <tripinfo-output value="0\tripinfo_000.xml"/>
    </output>

    <time>
        <begin value="0"/>
    </time>

    <processing>
        <route-steps value="200"/>
        <no-internal-links value="false"/>
        <time-to-teleport value="300"/>
        <time-to-teleport.highways value="0"/>
        <eager-insert value="false"/>
    </processing>

    <report>
        <verbose value="true"/>
        <no-warnings value="false"/>
        <log value="0\iteration_000.sumo.log"/>
        <no-step-log value="true"/>
    </report>

    <random_number>
        <random value="false"/>
    </random_number>

</configuration>
-->

<tripinfos xmlns:xsi="http://www.w3.org/2001/XMLSchema-instance" xsi:noNamespaceSchemaLocation="http://sumo.dlr.de/xsd/tripinfo_file.xsd">
    <tripinfo id="veh3_1" depart="25.00" departLane="154148014#2_0" departPos="5.10" departSpeed="0.00" departDelay="0.00" arrival="102.00" arrivalLane="359246993#0_0" arrivalPos="70.96" arrivalSpeed="11.57" duration="77.00" routeLength="748.89" waitingTime="0.00" waitingCount="0" stopTime="0.00" timeLoss="24.46" rerouteNo="0" devices="tripinfo_veh3_1" vType="DEFAULT_VEHTYPE" speedFactor="0.89" vaporized=""/>
    <tripinfo id="veh4_1" depart="25.00" departLane="-484446266#8_0" departPos="5.10" departSpeed="0.00" departDelay="0.00" arrival="114.00" arrivalLane="560361514#10_0" arrivalPos="202.28" arrivalSpeed="32.09" duration="89.00" routeLength="1587.70" waitingTime="0.00" waitingCount="0" stopTime="0.00" timeLoss="21.29" rerouteNo="0" devices="tripinfo_veh4_1" vType="DEFAULT_VEHTYPE" speedFactor="1.18" vaporized=""/>
    <tripinfo id="veh4_3" depart="25.00" departLane="754594908#4_0" departPos="5.10" departSpeed="0.00" departDelay="0.00" arrival="116.00" arrivalLane="562430406#8_0" arrivalPos="392.55" arrivalSpeed="13.35" duration="91.00" routeLength="1121.25" waitingTime="0.00" waitingCount="0" stopTime="0.00" timeLoss="17.73" rerouteNo="0" devices="tripinfo_veh4_3" vType="DEFAULT_VEHTYPE" speedFactor="1.01" vaporized=""/>
    <tripinfo id="veh1_7" depart="25.00" departLane="359408298#2_0" departPos="5.10" departSpeed="0.00" departDelay="0.00" arrival="124.00" arrivalLane="-359409608_0" arrivalPos="135.48" arrivalSpeed="15.36" duration="99.00" routeLength="1192.12" waitingTime="0.00" waitingCount="0" stopTime="0.00" timeLoss="27.58" rerouteNo="0" devices="tripinfo_veh1_7" vType="DEFAULT_VEHTYPE" speedFactor="1.12" vaporized=""/>
    <tripinfo id="veh2_6" depart="25.00" departLane="396051491#3_0" departPos="5.10" departSpeed="0.00" departDelay="0.00" arrival="129.00" arrivalLane="398041366#1_0" arrivalPos="85.07" arrivalSpeed="13.17" duration="104.00" routeLength="2231.52" waitingTime="0.00" waitingCount="0" stopTime="0.00" timeLoss="20.63" rerouteNo="0" devices="tripinfo_veh2_6" vType="DEFAULT_VEHTYPE" speedFactor="1.02" vaporized=""/>
    <tripinfo id="veh2_3" depart="25.00" departLane="562021794#1_0" departPos="5.10" departSpeed="0.00" departDelay="0.00" arrival="131.00" arrivalLane="562430406#8_0" arrivalPos="392.55" arrivalSpeed="12.17" duration="106.00" routeLength="1269.54" waitingTime="0.00" waitingCount="0" stopTime="0.00" timeLoss="20.21" rerouteNo="0" devices="tripinfo_veh2_3" vType="DEFAULT_VEHTYPE" speedFactor="0.94" vaporized=""/>
    <tripinfo id="veh4_5" depart="25.00" departLane="676492822_0" departPos="5.10" departSpeed="0.00" departDelay="0.00" arrival="134.00" arrivalLane="359247300#1_0" arrivalPos="219.61" arrivalSpeed="12.92" duration="109.00" routeLength="1677.43" waitingTime="0.00" waitingCount="0" stopTime="0.00" timeLoss="23.62" rerouteNo="0" devices="tripinfo_veh4_5" vType="DEFAULT_VEHTYPE" speedFactor="0.99" vaporized=""/>
    <tripinfo id="veh1_6" depart="25.00" departLane="766136200_0" departPos="5.10" departSpeed="0.00" departDelay="0.00" arrival="141.00" arrivalLane="359408298#2_0" arrivalPos="137.25" arrivalSpeed="13.61" duration="116.00" routeLength="1894.41" waitingTime="8.00" waitingCount="1" stopTime="0.00" timeLoss="39.22" rerouteNo="0" devices="tripinfo_veh1_6" vType="DEFAULT_VEHTYPE" speedFactor="1.05" vaporized=""/>
    <tripinfo id="veh3_2" depart="25.00" departLane="359246993#0_0" departPos="5.10" departSpeed="0.00" departDelay="0.00" arrival="161.00" arrivalLane="539383768#0_0" arrivalPos="201.66" arrivalSpeed="22.40" duration="136.00" routeLength="2164.82" waitingTime="5.00" waitingCount="1" stopTime="0.00" timeLoss="34.58" rerouteNo="0" devices="tripinfo_veh3_2" vType="DEFAULT_VEHTYPE" speedFactor="0.83" vaporized=""/>
    <tripinfo id="veh2_7" depart="25.00" departLane="398041366#1_0" departPos="5.10" departSpeed="0.00" departDelay="0.00" arrival="165.00" arrivalLane="-359409608_0" arrivalPos="135.48" arrivalSpeed="13.16" duration="140.00" routeLength="1695.34" waitingTime="10.00" waitingCount="1" stopTime="0.00" timeLoss="43.02" rerouteNo="0" devices="tripinfo_veh2_7" vType="DEFAULT_VEHTYPE" speedFactor="1.01" vaporized=""/>
    <tripinfo id="veh5_1" depart="25.00" departLane="362347497#7_0" departPos="5.10" departSpeed="0.00" departDelay="0.00" arrival="177.00" arrivalLane="154148013#6_0" arrivalPos="327.33" arrivalSpeed="32.35" duration="152.00" routeLength="2010.51" waitingTime="45.00" waitingCount="2" stopTime="0.00" timeLoss="84.39" rerouteNo="0" devices="tripinfo_veh5_1" vType="DEFAULT_VEHTYPE" speedFactor="1.18" vaporized=""/>
    <tripinfo id="veh0_3" depart="25.00" departLane="562021790#0_0" departPos="5.10" departSpeed="0.00" departDelay="0.00" arrival="185.00" arrivalLane="539383768#2_0" arrivalPos="239.65" arrivalSpeed="29.75" duration="160.00" routeLength="3514.32" waitingTime="3.00" waitingCount="1" stopTime="0.00" timeLoss="38.24" rerouteNo="0" devices="tripinfo_veh0_3" vType="DEFAULT_VEHTYPE" speedFactor="1.08" vaporized=""/>
    <tripinfo id="veh2_4" depart="25.00" departLane="562430406#8_0" departPos="5.10" departSpeed="0.00" departDelay="0.00" arrival="194.00" arrivalLane="539383765#3_0" arrivalPos="264.82" arrivalSpeed="12.95" duration="169.00" routeLength="2664.39" waitingTime="0.00" waitingCount="0" stopTime="0.00" timeLoss="24.51" rerouteNo="0" devices="tripinfo_veh2_4" vType="DEFAULT_VEHTYPE" speedFactor="0.94" vaporized=""/>
    <tripinfo id="veh1_2" depart="25.00" departLane="359247300#0_0" departPos="5.10" departSpeed="0.00" departDelay="0.00" arrival="196.00" arrivalLane="562549612#1_0" arrivalPos="393.19" arrivalSpeed="12.44" duration="171.00" routeLength="2286.55" waitingTime="0.00" waitingCount="0" stopTime="0.00" timeLoss="33.62" rerouteNo="0" devices="tripinfo_veh1_2" vType="DEFAULT_VEHTYPE" speedFactor="0.94" vaporized=""/>
    <tripinfo id="veh3_3" depart="25.00" departLane="539383768#0_0" departPos="5.10" departSpeed="0.00" departDelay="0.00" arrival="201.00" arrivalLane="560361514#6_0" arrivalPos="442.89" arrivalSpeed="23.77" duration="176.00" routeLength="3171.93" waitingTime="1.00" waitingCount="1" stopTime="0.00" timeLoss="39.99" rerouteNo="0" devices="tripinfo_veh3_3" vType="DEFAULT_VEHTYPE" speedFactor="0.87" vaporized=""/>
    <tripinfo id="veh4_2" depart="25.00" departLane="560361514#10_0" departPos="5.10" departSpeed="0.00" departDelay="0.00" arrival="202.00" arrivalLane="754594908#4_0" arrivalPos="190.58" arrivalSpeed="31.25" duration="177.00" routeLength="3747.23" waitingTime="25.00" waitingCount="2" stopTime="0.00" timeLoss="57.93" rerouteNo="0" devices="tripinfo_veh4_2" vType="DEFAULT_VEHTYPE" speedFactor="1.15" vaporized=""/>
    <tripinfo id="veh2_0" depart="31.00" departLane="-359409608_0" departPos="5.10" departSpeed="0.00" departDelay="6.00" arrival="210.00" arrivalLane="-359408277#0_0" arrivalPos="175.18" arrivalSpeed="13.23" duration="179.00" routeLength="2191.66" waitingTime="0.00" waitingCount="0" stopTime="0.00" timeLoss="26.17" rerouteNo="0" devices="tripinfo_veh2_0" vType="DEFAULT_VEHTYPE" speedFactor="0.99" vaporized=""/>
    <tripinfo id="veh4_0" depart="37.00" departLane="-359409608_0" departPos="5.10" departSpeed="0.00" departDelay="12.00" arrival="225.00" arrivalLane="-484446266#8_0" arrivalPos="248.85" arrivalSpeed="11.77" duration="188.00" routeLength="2959.40" waitingTime="1.00" waitingCount="1" stopTime="0.00" timeLoss="39.66" rerouteNo="0" devices="tripinfo_veh4_0" vType="DEFAULT_VEHTYPE" speedFactor="0.93" vaporized=""/>
    <tripinfo id="veh3_0" depart="34.00" departLane="-359409608_0" departPos="5.10" departSpeed="0.00" departDelay="9.00" arrival="233.00" arrivalLane="154148014#2_0" arrivalPos="6.55" arrivalSpeed="22.51" duration="199.00" routeLength="3687.11" waitingTime="1.00" waitingCount="1" stopTime="0.00" timeLoss="41.37" rerouteNo="0" devices="tripinfo_veh3_0" vType="DEFAULT_VEHTYPE" speedFactor="0.98" vaporized=""/>
    <tripinfo id="veh1_3" depart="25.00" departLane="562549612#1_0" departPos="5.10" departSpeed="0.00" departDelay="0.00" arrival="235.00" arrivalLane="359247813#2_0" arrivalPos="275.45" arrivalSpeed="10.76" duration="210.00" routeLength="2648.82" waitingTime="0.00" waitingCount="0" stopTime="0.00" timeLoss="30.79" rerouteNo="0" devices="tripinfo_veh1_3" vType="DEFAULT_VEHTYPE" speedFactor="0.86" vaporized=""/>
    <tripinfo id="veh5_2" depart="25.00" departLane="154148013#6_0" departPos="5.10" departSpeed="0.00" departDelay="0.00" arrival="250.00" arrivalLane="230291072_0" arrivalPos="179.75" arrivalSpeed="14.27" duration="225.00" routeLength="3754.42" waitingTime="37.00" waitingCount="1" stopTime="0.00" timeLoss="74.98" rerouteNo="0" devices="tripinfo_veh5_2" vType="DEFAULT_VEHTYPE" speedFactor="1.10" vaporized=""/>
    <tripinfo id="veh3_5" depart="25.00" departLane="539383762#7_0" departPos="5.10" departSpeed="0.00" departDelay="0.00" arrival="251.00" arrivalLane="539383767#1_0" arrivalPos="58.17" arrivalSpeed="12.45" duration="226.00" routeLength="904.36" waitingTime="143.00" waitingCount="3" stopTime="0.00" timeLoss="177.02" rerouteNo="0" devices="tripinfo_veh3_5" vType="DEFAULT_VEHTYPE" speedFactor="0.95" vaporized=""/>
    <tripinfo id="veh4_4" depart="28.00" departLane="562430406#8_0" departPos="5.10" departSpeed="0.00" departDelay="3.00" arrival="267.00" arrivalLane="676492822_0" arrivalPos="72.78" arrivalSpeed="9.21" duration="239.00" routeLength="3109.20" waitingTime="44.00" waitingCount="2" stopTime="0.00" timeLoss="95.11" rerouteNo="0" devices="tripinfo_veh4_4" vType="DEFAULT_VEHTYPE" speedFactor="1.17" vaporized=""/>
    <tripinfo id="veh3_4" depart="25.00" departLane="560361514#6_0" departPos="5.10" departSpeed="0.00" departDelay="0.00" arrival="275.00" arrivalLane="539383762#7_0" arrivalPos="169.23" arrivalSpeed="11.75" duration="250.00" routeLength="4192.75" waitingTime="11.00" waitingCount="2" stopTime="0.00" timeLoss="60.65" rerouteNo="0" devices="tripinfo_veh3_4" vType="DEFAULT_VEHTYPE" speedFactor="0.92" vaporized=""/>
    <tripinfo id="veh0_0" depart="25.00" departLane="-359409608_0" departPos="5.10" departSpeed="0.00" departDelay="0.00" arrival="299.00" arrivalLane="479199742#1_0" arrivalPos="409.63" arrivalSpeed="22.51" duration="274.00" routeLength="4707.16" waitingTime="38.00" waitingCount="1" stopTime="0.00" timeLoss="72.75" rerouteNo="0" devices="tripinfo_veh0_0" vType="DEFAULT_VEHTYPE" speedFactor="1.06" vaporized=""/>
    <tripinfo id="veh2_5" depart="25.00" departLane="539383765#3_0" departPos="5.10" departSpeed="0.00" departDelay="0.00" arrival="370.00" arrivalLane="396051491#3_0" arrivalPos="141.12" arrivalSpeed="28.87" duration="345.00" routeLength="4016.78" waitingTime="137.00" waitingCount="6" stopTime="0.00" timeLoss="209.25" rerouteNo="0" devices="tripinfo_veh2_5" vType="DEFAULT_VEHTYPE" speedFactor="1.16" vaporized=""/>
    <tripinfo id="veh0_5" depart="25.00" departLane="781684931#0_0" departPos="5.10" departSpeed="0.00" departDelay="0.00" arrival="381.00" arrivalLane="-359409608_0" arrivalPos="135.48" arrivalSpeed="11.16" duration="356.00" routeLength="5236.14" waitingTime="17.00" waitingCount="1" stopTime="0.00" timeLoss="71.81" rerouteNo="0" devices="tripinfo_veh0_5" vType="DEFAULT_VEHTYPE" speedFactor="0.83" vaporized=""/>
    <tripinfo id="veh0_1" depart="25.00" departLane="479199742#1_0" departPos="5.10" departSpeed="0.00" departDelay="0.00" arrival="445.00" arrivalLane="539383768#6_0" arrivalPos="45.63" arrivalSpeed="16.46" duration="420.00" routeLength="6119.87" waitingTime="88.00" waitingCount="3" stopTime="0.00" timeLoss="142.95" rerouteNo="0" devices="tripinfo_veh0_1" vType="DEFAULT_VEHTYPE" speedFactor="0.94" vaporized=""/>
    <tripinfo id="veh1_5" depart="25.00" departLane="-675107653#5_0" departPos="5.10" departSpeed="0.00" departDelay="0.00" arrival="549.00" arrivalLane="766136200_0" arrivalPos="53.47" arrivalSpeed="20.10" duration="524.00" routeLength="2627.72" waitingTime="380.00" waitingCount="4" stopTime="0.00" timeLoss="415.82" rerouteNo="0" devices="tripinfo_veh1_5" vType="DEFAULT_VEHTYPE" speedFactor="1.03" vaporized=""/>
    <tripinfo id="veh4_6" depart="25.00" departLane="359247300#1_0" departPos="5.10" departSpeed="0.00" departDelay="0.00" arrival="554.00" arrivalLane="-359409608_0" arrivalPos="135.48" arrivalSpeed="13.17" duration="529.00" routeLength="3871.70" waitingTime="303.00" waitingCount="2" stopTime="0.00" timeLoss="348.15" rerouteNo="0" devices="tripinfo_veh4_6" vType="DEFAULT_VEHTYPE" speedFactor="1.02" vaporized=""/>
    <tripinfo id="veh3_6" depart="25.00" departLane="539383767#1_0" departPos="5.10" departSpeed="0.00" departDelay="0.00" arrival="556.00" arrivalLane="-359409608_0" arrivalPos="135.48" arrivalSpeed="14.83" duration="531.00" routeLength="2054.82" waitingTime="357.00" waitingCount="4" stopTime="0.00" timeLoss="421.90" rerouteNo="0" devices="tripinfo_veh3_6" vType="DEFAULT_VEHTYPE" speedFactor="1.13" vaporized=""/>
    <tripinfo id="veh1_0" depart="28.00" departLane="-359409608_0" departPos="5.10" departSpeed="0.00" departDelay="3.00" arrival="571.00" arrivalLane="563175147#6_0" arrivalPos="123.61" arrivalSpeed="22.48" duration="543.00" routeLength="2803.54" waitingTime="360.00" waitingCount="4" stopTime="0.00" timeLoss="420.65" rerouteNo="0" devices="tripinfo_veh1_0" vType="DEFAULT_VEHTYPE" speedFactor="1.05" vaporized=""/>
    <tripinfo id="veh5_3" depart="25.00" departLane="230291072_0" departPos="5.10" departSpeed="0.00" departDelay="0.00" arrival="585.00" arrivalLane="363002237#4_0" arrivalPos="45.42" arrivalSpeed="12.15" duration="560.00" routeLength="6293.08" waitingTime="179.00" waitingCount="5" stopTime="0.00" timeLoss="259.55" rerouteNo="0" devices="tripinfo_veh5_3" vType="DEFAULT_VEHTYPE" speedFactor="0.90" vaporized=""/>
    <tripinfo id="veh0_2" depart="25.00" departLane="539383768#6_0" departPos="5.10" departSpeed="0.00" departDelay="0.00" arrival="663.00" arrivalLane="562021790#0_0" arrivalPos="53.64" arrivalSpeed="27.69" duration="638.00" routeLength="2994.55" waitingTime="467.00" waitingCount="5" stopTime="0.00" timeLoss="527.43" rerouteNo="0" devices="tripinfo_veh0_2" vType="DEFAULT_VEHTYPE" speedFactor="1.01" vaporized=""/>
    <tripinfo id="veh2_1" depart="25.00" departLane="-359408277#0_0" departPos="5.10" departSpeed="0.00" departDelay="0.00" arrival="669.00" arrivalLane="563587627_0" arrivalPos="120.78" arrivalSpeed="11.68" duration="644.00" routeLength="4440.98" waitingTime="376.00" waitingCount="4" stopTime="0.00" timeLoss="426.50" rerouteNo="0" devices="tripinfo_veh2_1" vType="DEFAULT_VEHTYPE" speedFactor="0.93" vaporized=""/>
    <tripinfo id="veh2_2" depart="25.00" departLane="563587627_0" departPos="5.10" departSpeed="0.00" departDelay="0.00" arrival="686.00" arrivalLane="562021794#1_0" arrivalPos="11.24" arrivalSpeed="10.20" duration="661.00" routeLength="3137.08" waitingTime="424.00" waitingCount="5" stopTime="0.00" timeLoss="487.45" rerouteNo="0" devices="tripinfo_veh2_2" vType="DEFAULT_VEHTYPE" speedFactor="0.88" vaporized=""/>
    <tripinfo id="veh5_0" depart="40.00" departLane="-359409608_0" departPos="5.10" departSpeed="0.00" departDelay="15.00" arrival="689.00" arrivalLane="362347497#7_0" arrivalPos="149.91" arrivalSpeed="21.54" duration="649.00" routeLength="3184.18" waitingTime="428.00" waitingCount="6" stopTime="0.00" timeLoss="498.03" rerouteNo="0" devices="tripinfo_veh5_0" vType="DEFAULT_VEHTYPE" speedFactor="0.97" vaporized=""/>
    <tripinfo id="veh1_1" depart="25.00" departLane="563175147#6_0" departPos="5.10" departSpeed="0.00" departDelay="0.00" arrival="697.00" arrivalLane="359247300#0_0" arrivalPos="161.40" arrivalSpeed="11.74" duration="672.00" routeLength="3928.96" waitingTime="441.00" waitingCount="7" stopTime="0.00" timeLoss="493.12" rerouteNo="0" devices="tripinfo_veh1_1" vType="DEFAULT_VEHTYPE" speedFactor="0.89" vaporized=""/>
    <tripinfo id="veh5_4" depart="25.00" departLane="363002237#4_0" departPos="5.10" departSpeed="0.00" departDelay="0.00" arrival="705.00" arrivalLane="-359409608_0" arrivalPos="135.48" arrivalSpeed="13.55" duration="680.00" routeLength="3985.45" waitingTime="433.00" waitingCount="6" stopTime="0.00" timeLoss="503.78" rerouteNo="0" devices="tripinfo_veh5_4" vType="DEFAULT_VEHTYPE" speedFactor="1.03" vaporized=""/>
    <tripinfo id="veh0_4" depart="25.00" departLane="539383768#2_0" departPos="5.10" departSpeed="0.00" departDelay="0.00" arrival="714.00" arrivalLane="781684931#0_0" arrivalPos="57.29" arrivalSpeed="14.01" duration="689.00" routeLength="8398.55" waitingTime="294.00" waitingCount="9" stopTime="0.00" timeLoss="388.65" rerouteNo="0" devices="tripinfo_veh0_4" vType="DEFAULT_VEHTYPE" speedFactor="1.03" vaporized=""/>
    <tripinfo id="veh1_4" depart="25.00" departLane="359247813#2_0" departPos="5.10" departSpeed="0.00" departDelay="0.00" arrival="745.00" arrivalLane="-675107653#5_0" arrivalPos="68.60" arrivalSpeed="14.74" duration="720.00" routeLength="2288.66" waitingTime="541.00" waitingCount="8" stopTime="0.00" timeLoss="606.72" rerouteNo="0" devices="tripinfo_veh1_4" vType="DEFAULT_VEHTYPE" speedFactor="1.09" vaporized=""/>
</tripinfos>
