<?xml version="1.0" encoding="UTF-8"?>

<!-- generated on 06/25/21 10:12:21 by Eclipse SUMO sumo Version 1.8.0
<configuration xmlns:xsi="http://www.w3.org/2001/XMLSchema-instance" xsi:noNamespaceSchemaLocation="http://sumo.dlr.de/xsd/sumoConfiguration.xsd">

    <input>
        <net-file value="1\../BSD.net.xml"/>
        <route-files value="1\bsd_001.rou.xml"/>
        <additional-files value="1\dua_dump_001.add.xml"/>
    </input>

    <output>
        <summary-output value="1\summary_001.xml"/>
        <tripinfo-output value="1\tripinfo_001.xml"/>
    </output>

    <time>
        <begin value="0"/>
    </time>

    <processing>
        <route-steps value="200"/>
        <no-internal-links value="false"/>
        <time-to-teleport value="300"/>
        <time-to-teleport.highways value="0"/>
        <eager-insert value="false"/>
    </processing>

    <report>
        <verbose value="true"/>
        <no-warnings value="false"/>
        <log value="1\iteration_001.sumo.log"/>
        <no-step-log value="true"/>
    </report>

    <random_number>
        <random value="false"/>
    </random_number>

</configuration>
-->

<tripinfos xmlns:xsi="http://www.w3.org/2001/XMLSchema-instance" xsi:noNamespaceSchemaLocation="http://sumo.dlr.de/xsd/tripinfo_file.xsd">
    <tripinfo id="rute_8_4" depart="37.00" departLane="560361514#10_0" departPos="5.10" departSpeed="0.00" departDelay="12.00" arrival="63.00" arrivalLane="154148014#2_0" arrivalPos="6.55" arrivalSpeed="23.35" duration="26.00" routeLength="464.98" waitingTime="0.00" waitingCount="0" stopTime="0.00" timeLoss="9.89" rerouteNo="0" devices="tripinfo_rute_8_4" vType="DEFAULT_VEHTYPE" speedFactor="1.06" vaporized=""/>
    <tripinfo id="rute_11_10" depart="55.00" departLane="154148013#6_0" departPos="5.10" departSpeed="0.00" departDelay="30.00" arrival="80.00" arrivalLane="562021794#1_0" arrivalPos="11.24" arrivalSpeed="25.30" duration="25.00" routeLength="474.47" waitingTime="0.00" waitingCount="0" stopTime="0.00" timeLoss="5.78" rerouteNo="0" devices="tripinfo_rute_11_10" vType="DEFAULT_VEHTYPE" speedFactor="0.92" vaporized=""/>
    <tripinfo id="rute_3_4" depart="34.00" departLane="359246993#0_0" departPos="5.10" departSpeed="0.00" departDelay="9.00" arrival="83.00" arrivalLane="154148014#2_0" arrivalPos="6.55" arrivalSpeed="21.93" duration="49.00" routeLength="612.76" waitingTime="0.00" waitingCount="0" stopTime="0.00" timeLoss="18.43" rerouteNo="0" devices="tripinfo_rute_3_4" vType="DEFAULT_VEHTYPE" speedFactor="0.88" vaporized=""/>
    <tripinfo id="rute_4_8" depart="46.00" departLane="154148014#2_0" departPos="5.10" departSpeed="0.00" departDelay="21.00" arrival="83.00" arrivalLane="560361514#10_0" arrivalPos="202.28" arrivalSpeed="24.50" duration="37.00" routeLength="371.08" waitingTime="4.00" waitingCount="1" stopTime="0.00" timeLoss="20.48" rerouteNo="0" devices="tripinfo_rute_4_8" vType="DEFAULT_VEHTYPE" speedFactor="0.91" vaporized=""/>
    <tripinfo id="rute_4_1" depart="28.00" departLane="154148014#2_0" departPos="5.10" departSpeed="0.00" departDelay="3.00" arrival="92.00" arrivalLane="-484446266#8_0" arrivalPos="248.85" arrivalSpeed="5.09" duration="64.00" routeLength="1090.18" waitingTime="0.00" waitingCount="0" stopTime="0.00" timeLoss="20.08" rerouteNo="0" devices="tripinfo_rute_4_1" vType="DEFAULT_VEHTYPE" speedFactor="1.12" vaporized=""/>
    <tripinfo id="rute_4_2" depart="31.00" departLane="154148014#2_0" departPos="5.10" departSpeed="0.00" departDelay="6.00" arrival="94.00" arrivalLane="-675107653#5_0" arrivalPos="68.60" arrivalSpeed="12.91" duration="63.00" routeLength="1190.24" waitingTime="0.00" waitingCount="0" stopTime="0.00" timeLoss="12.94" rerouteNo="0" devices="tripinfo_rute_4_2" vType="DEFAULT_VEHTYPE" speedFactor="1.02" vaporized=""/>
    <tripinfo id="rute_9_1" depart="27.00" departLane="560361514#6_0" departPos="5.10" departSpeed="0.00" departDelay="2.00" arrival="98.00" arrivalLane="-484446266#8_0" arrivalPos="248.85" arrivalSpeed="14.57" duration="71.00" routeLength="1240.02" waitingTime="0.00" waitingCount="0" stopTime="0.00" timeLoss="20.26" rerouteNo="0" devices="tripinfo_rute_9_1" vType="DEFAULT_VEHTYPE" speedFactor="1.12" vaporized=""/>
    <tripinfo id="rute_15_14" depart="68.00" departLane="539383768#0_0" departPos="5.10" departSpeed="0.00" departDelay="43.00" arrival="100.00" arrivalLane="539383768#2_0" arrivalPos="239.65" arrivalSpeed="30.72" duration="32.00" routeLength="729.87" waitingTime="0.00" waitingCount="0" stopTime="0.00" timeLoss="8.17" rerouteNo="0" devices="tripinfo_rute_15_14" vType="DEFAULT_VEHTYPE" speedFactor="1.13" vaporized=""/>
    <tripinfo id="rute_10_2" depart="31.00" departLane="562021794#1_0" departPos="5.10" departSpeed="0.00" departDelay="6.00" arrival="102.00" arrivalLane="-675107653#5_0" arrivalPos="68.60" arrivalSpeed="14.30" duration="71.00" routeLength="1290.70" waitingTime="0.00" waitingCount="0" stopTime="0.00" timeLoss="18.19" rerouteNo="0" devices="tripinfo_rute_10_2" vType="DEFAULT_VEHTYPE" speedFactor="1.07" vaporized=""/>
    <tripinfo id="rute_8_1" depart="28.00" departLane="560361514#10_0" departPos="5.10" departSpeed="0.00" departDelay="3.00" arrival="107.00" arrivalLane="-484446266#8_0" arrivalPos="248.85" arrivalSpeed="14.03" duration="79.00" routeLength="1552.08" waitingTime="0.00" waitingCount="0" stopTime="0.00" timeLoss="19.11" rerouteNo="0" devices="tripinfo_rute_8_1" vType="DEFAULT_VEHTYPE" speedFactor="1.10" vaporized=""/>
    <tripinfo id="rute_3_8" depart="46.00" departLane="359246993#0_0" departPos="5.10" departSpeed="0.00" departDelay="21.00" arrival="111.00" arrivalLane="560361514#10_1" arrivalPos="202.28" arrivalSpeed="28.09" duration="65.00" routeLength="344.96" waitingTime="22.00" waitingCount="1" stopTime="0.00" timeLoss="47.78" rerouteNo="0" devices="tripinfo_rute_3_8" vType="DEFAULT_VEHTYPE" speedFactor="1.02" vaporized=""/>
    <tripinfo id="rute_9_8" depart="49.00" departLane="560361514#6_0" departPos="5.10" departSpeed="0.00" departDelay="24.00" arrival="112.00" arrivalLane="560361514#10_1" arrivalPos="202.28" arrivalSpeed="29.21" duration="63.00" routeLength="786.44" waitingTime="17.00" waitingCount="1" stopTime="0.00" timeLoss="37.67" rerouteNo="0" devices="tripinfo_rute_9_8" vType="DEFAULT_VEHTYPE" speedFactor="1.13" vaporized=""/>
    <tripinfo id="rute_9_2" depart="30.00" departLane="560361514#6_0" departPos="5.10" departSpeed="0.00" departDelay="5.00" arrival="119.00" arrivalLane="-675107653#5_0" arrivalPos="68.60" arrivalSpeed="12.91" duration="89.00" routeLength="1340.08" waitingTime="6.00" waitingCount="1" stopTime="0.00" timeLoss="30.58" rerouteNo="0" devices="tripinfo_rute_9_2" vType="DEFAULT_VEHTYPE" speedFactor="1.02" vaporized=""/>
    <tripinfo id="rute_9_4" depart="36.00" departLane="560361514#6_0" departPos="5.10" departSpeed="0.00" departDelay="11.00" arrival="120.00" arrivalLane="154148014#2_0" arrivalPos="6.55" arrivalSpeed="23.17" duration="84.00" routeLength="1054.24" waitingTime="21.00" waitingCount="2" stopTime="0.00" timeLoss="43.73" rerouteNo="0" devices="tripinfo_rute_9_4" vType="DEFAULT_VEHTYPE" speedFactor="0.95" vaporized=""/>
    <tripinfo id="rute_8_2" depart="31.00" departLane="560361514#10_0" departPos="5.10" departSpeed="0.00" departDelay="6.00" arrival="124.00" arrivalLane="-675107653#5_0" arrivalPos="68.60" arrivalSpeed="13.47" duration="93.00" routeLength="1652.14" waitingTime="0.00" waitingCount="0" stopTime="0.00" timeLoss="26.64" rerouteNo="0" devices="tripinfo_rute_8_2" vType="DEFAULT_VEHTYPE" speedFactor="1.03" vaporized=""/>
    <tripinfo id="rute_6_12" depart="58.00" departLane="539383767#1_0" departPos="5.10" departSpeed="0.00" departDelay="33.00" arrival="126.00" arrivalLane="754594908#4_1" arrivalPos="190.58" arrivalSpeed="26.51" duration="68.00" routeLength="763.47" waitingTime="0.00" waitingCount="0" stopTime="0.00" timeLoss="15.28" rerouteNo="0" devices="tripinfo_rute_6_12" vType="DEFAULT_VEHTYPE" speedFactor="0.96" vaporized=""/>
    <tripinfo id="rute_4_9" depart="49.00" departLane="154148014#2_0" departPos="5.10" departSpeed="0.00" departDelay="24.00" arrival="128.00" arrivalLane="560361514#6_0" arrivalPos="442.89" arrivalSpeed="28.28" duration="79.00" routeLength="1205.99" waitingTime="4.00" waitingCount="2" stopTime="0.00" timeLoss="34.89" rerouteNo="0" devices="tripinfo_rute_4_9" vType="DEFAULT_VEHTYPE" speedFactor="1.04" vaporized=""/>
    <tripinfo id="rute_10_1" depart="28.00" departLane="562021794#1_0" departPos="5.10" departSpeed="0.00" departDelay="3.00" arrival="129.00" arrivalLane="-484446266#8_0" arrivalPos="248.85" arrivalSpeed="13.24" duration="101.00" routeLength="1560.88" waitingTime="7.00" waitingCount="1" stopTime="0.00" timeLoss="33.00" rerouteNo="0" devices="tripinfo_rute_10_1" vType="DEFAULT_VEHTYPE" speedFactor="1.00" vaporized=""/>
    <tripinfo id="rute_8_9" depart="49.00" departLane="560361514#10_0" departPos="5.10" departSpeed="0.00" departDelay="24.00" arrival="130.00" arrivalLane="560361514#6_0" arrivalPos="442.89" arrivalSpeed="26.17" duration="81.00" routeLength="1669.52" waitingTime="0.00" waitingCount="0" stopTime="0.00" timeLoss="24.26" rerouteNo="0" devices="tripinfo_rute_8_9" vType="DEFAULT_VEHTYPE" speedFactor="1.12" vaporized=""/>
    <tripinfo id="rute_9_3" depart="33.00" departLane="560361514#6_0" departPos="5.10" departSpeed="0.00" departDelay="8.00" arrival="131.00" arrivalLane="359246993#0_0" arrivalPos="70.96" arrivalSpeed="7.38" duration="98.00" routeLength="890.89" waitingTime="14.00" waitingCount="1" stopTime="0.00" timeLoss="48.52" rerouteNo="0" devices="tripinfo_rute_9_3" vType="DEFAULT_VEHTYPE" speedFactor="1.00" vaporized=""/>
    <tripinfo id="rute_11_1" depart="28.00" departLane="154148013#6_0" departPos="5.10" departSpeed="0.00" departDelay="3.00" arrival="134.00" arrivalLane="-484446266#8_0" arrivalPos="248.85" arrivalSpeed="13.72" duration="106.00" routeLength="2029.21" waitingTime="0.00" waitingCount="0" stopTime="0.00" timeLoss="20.47" rerouteNo="0" devices="tripinfo_rute_11_1" vType="DEFAULT_VEHTYPE" speedFactor="1.00" vaporized=""/>
    <tripinfo id="rute_11_2" depart="31.00" departLane="154148013#6_0" departPos="5.10" departSpeed="0.00" departDelay="6.00" arrival="134.00" arrivalLane="-675107653#5_0" arrivalPos="68.60" arrivalSpeed="14.13" duration="103.00" routeLength="1759.03" waitingTime="10.00" waitingCount="1" stopTime="0.00" timeLoss="30.84" rerouteNo="0" devices="tripinfo_rute_11_2" vType="DEFAULT_VEHTYPE" speedFactor="1.03" vaporized=""/>
    <tripinfo id="rute_10_4" depart="37.00" departLane="562021794#1_0" departPos="5.10" departSpeed="0.00" departDelay="12.00" arrival="135.00" arrivalLane="154148014#2_0" arrivalPos="6.55" arrivalSpeed="24.78" duration="98.00" routeLength="2288.59" waitingTime="0.00" waitingCount="0" stopTime="0.00" timeLoss="20.18" rerouteNo="0" devices="tripinfo_rute_10_4" vType="DEFAULT_VEHTYPE" speedFactor="1.06" vaporized=""/>
    <tripinfo id="rute_15_5" depart="40.00" departLane="539383768#0_0" departPos="5.10" departSpeed="0.00" departDelay="15.00" arrival="135.00" arrivalLane="230291072_0" arrivalPos="179.75" arrivalSpeed="13.74" duration="95.00" routeLength="1109.67" waitingTime="0.00" waitingCount="0" stopTime="0.00" timeLoss="28.96" rerouteNo="0" devices="tripinfo_rute_15_5" vType="DEFAULT_VEHTYPE" speedFactor="1.04" vaporized=""/>
    <tripinfo id="rute_3_1" depart="28.00" departLane="359246993#0_0" departPos="5.10" departSpeed="0.00" departDelay="3.00" arrival="140.00" arrivalLane="-484446266#8_0" arrivalPos="248.85" arrivalSpeed="13.77" duration="112.00" routeLength="1070.99" waitingTime="28.00" waitingCount="2" stopTime="0.00" timeLoss="55.65" rerouteNo="0" devices="tripinfo_rute_3_1" vType="DEFAULT_VEHTYPE" speedFactor="1.00" vaporized=""/>
    <tripinfo id="rute_4_3" depart="34.00" departLane="154148014#2_0" departPos="5.10" departSpeed="0.00" departDelay="9.00" arrival="142.00" arrivalLane="359246993#0_0" arrivalPos="70.96" arrivalSpeed="13.70" duration="108.00" routeLength="748.89" waitingTime="29.00" waitingCount="2" stopTime="0.00" timeLoss="60.08" rerouteNo="0" devices="tripinfo_rute_4_3" vType="DEFAULT_VEHTYPE" speedFactor="0.99" vaporized=""/>
    <tripinfo id="rute_15_4" depart="37.00" departLane="539383768#0_0" departPos="5.10" departSpeed="0.00" departDelay="12.00" arrival="142.00" arrivalLane="154148014#2_1" arrivalPos="6.55" arrivalSpeed="21.15" duration="105.00" routeLength="1965.76" waitingTime="0.00" waitingCount="0" stopTime="0.00" timeLoss="29.62" rerouteNo="0" devices="tripinfo_rute_15_4" vType="DEFAULT_VEHTYPE" speedFactor="0.99" vaporized=""/>
    <tripinfo id="rute_11_9" depart="52.00" departLane="154148013#6_0" departPos="5.10" departSpeed="0.00" departDelay="27.00" arrival="146.00" arrivalLane="560361514#6_1" arrivalPos="442.89" arrivalSpeed="26.25" duration="94.00" routeLength="2140.47" waitingTime="0.00" waitingCount="0" stopTime="0.00" timeLoss="12.84" rerouteNo="0" devices="tripinfo_rute_11_9" vType="DEFAULT_VEHTYPE" speedFactor="0.96" vaporized=""/>
    <tripinfo id="rute_8_3" depart="34.00" departLane="560361514#10_0" departPos="5.10" departSpeed="0.00" departDelay="9.00" arrival="147.00" arrivalLane="359246993#0_0" arrivalPos="70.96" arrivalSpeed="13.40" duration="113.00" routeLength="1212.42" waitingTime="2.00" waitingCount="1" stopTime="0.00" timeLoss="49.63" rerouteNo="0" devices="tripinfo_rute_8_3" vType="DEFAULT_VEHTYPE" speedFactor="1.02" vaporized=""/>
    <tripinfo id="rute_10_9" depart="61.00" departLane="562021794#1_0" departPos="5.10" departSpeed="0.00" departDelay="36.00" arrival="148.00" arrivalLane="560361514#6_0" arrivalPos="442.89" arrivalSpeed="28.99" duration="87.00" routeLength="1672.14" waitingTime="2.00" waitingCount="1" stopTime="0.00" timeLoss="33.53" rerouteNo="0" devices="tripinfo_rute_10_9" vType="DEFAULT_VEHTYPE" speedFactor="1.14" vaporized=""/>
    <tripinfo id="rute_0_11" depart="55.00" departLane="-359409608_0" departPos="5.10" departSpeed="0.00" departDelay="30.00" arrival="149.00" arrivalLane="154148013#6_1" arrivalPos="327.33" arrivalSpeed="29.91" duration="94.00" routeLength="1252.42" waitingTime="0.00" waitingCount="0" stopTime="0.00" timeLoss="34.38" rerouteNo="0" devices="tripinfo_rute_0_11" vType="DEFAULT_VEHTYPE" speedFactor="1.09" vaporized=""/>
    <tripinfo id="rute_12_14" depart="64.00" departLane="754594908#4_0" departPos="5.10" departSpeed="0.00" departDelay="39.00" arrival="149.00" arrivalLane="539383768#2_0" arrivalPos="239.65" arrivalSpeed="29.57" duration="85.00" routeLength="1839.62" waitingTime="0.00" waitingCount="0" stopTime="0.00" timeLoss="20.03" rerouteNo="0" devices="tripinfo_rute_12_14" vType="DEFAULT_VEHTYPE" speedFactor="1.07" vaporized=""/>
    <tripinfo id="rute_11_8" depart="49.00" departLane="154148013#6_0" departPos="5.10" departSpeed="0.00" departDelay="24.00" arrival="151.00" arrivalLane="560361514#10_1" arrivalPos="202.28" arrivalSpeed="31.30" duration="102.00" routeLength="2489.12" waitingTime="0.00" waitingCount="0" stopTime="0.00" timeLoss="22.60" rerouteNo="0" devices="tripinfo_rute_11_8" vType="DEFAULT_VEHTYPE" speedFactor="1.14" vaporized=""/>
    <tripinfo id="rute_12_15" depart="67.00" departLane="754594908#4_0" departPos="5.10" departSpeed="0.00" departDelay="42.00" arrival="154.00" arrivalLane="539383768#0_0" arrivalPos="201.66" arrivalSpeed="27.00" duration="87.00" routeLength="1779.08" waitingTime="0.00" waitingCount="0" stopTime="0.00" timeLoss="19.44" rerouteNo="0" devices="tripinfo_rute_12_15" vType="DEFAULT_VEHTYPE" speedFactor="1.00" vaporized=""/>
    <tripinfo id="rute_1_2" depart="28.00" departLane="-484446266#8_0" departPos="5.10" departSpeed="0.00" departDelay="3.00" arrival="155.00" arrivalLane="-675107653#5_0" arrivalPos="68.60" arrivalSpeed="11.62" duration="127.00" routeLength="852.46" waitingTime="41.00" waitingCount="1" stopTime="0.00" timeLoss="60.70" rerouteNo="0" devices="tripinfo_rute_1_2" vType="DEFAULT_VEHTYPE" speedFactor="0.88" vaporized=""/>
    <tripinfo id="rute_8_15" depart="67.00" departLane="560361514#10_0" departPos="5.10" departSpeed="0.00" departDelay="42.00" arrival="156.00" arrivalLane="539383768#0_2" arrivalPos="201.66" arrivalSpeed="33.14" duration="89.00" routeLength="2021.71" waitingTime="0.00" waitingCount="0" stopTime="0.00" timeLoss="28.25" rerouteNo="0" devices="tripinfo_rute_8_15" vType="DEFAULT_VEHTYPE" speedFactor="1.23" vaporized=""/>
    <tripinfo id="rute_10_3" depart="34.00" departLane="562021794#1_0" departPos="5.10" departSpeed="0.00" departDelay="9.00" arrival="157.00" arrivalLane="359246993#0_0" arrivalPos="70.96" arrivalSpeed="11.61" duration="123.00" routeLength="2125.24" waitingTime="0.00" waitingCount="0" stopTime="0.00" timeLoss="20.06" rerouteNo="0" devices="tripinfo_rute_10_3" vType="DEFAULT_VEHTYPE" speedFactor="0.93" vaporized=""/>
    <tripinfo id="rute_2_0" depart="25.00" departLane="-675107653#5_0" departPos="5.10" departSpeed="0.00" departDelay="0.00" arrival="160.00" arrivalLane="-359409608_0" arrivalPos="135.48" arrivalSpeed="16.04" duration="135.00" routeLength="2108.53" waitingTime="3.00" waitingCount="1" stopTime="0.00" timeLoss="43.27" rerouteNo="0" devices="tripinfo_rute_2_0" vType="DEFAULT_VEHTYPE" speedFactor="1.18" vaporized=""/>
    <tripinfo id="rute_2_9" depart="51.00" departLane="-675107653#5_0" departPos="5.10" departSpeed="0.00" departDelay="26.00" arrival="160.00" arrivalLane="560361514#6_0" arrivalPos="442.89" arrivalSpeed="30.45" duration="109.00" routeLength="1922.27" waitingTime="0.00" waitingCount="0" stopTime="0.00" timeLoss="32.73" rerouteNo="0" devices="tripinfo_rute_2_9" vType="DEFAULT_VEHTYPE" speedFactor="1.10" vaporized=""/>
    <tripinfo id="rute_3_2" depart="31.00" departLane="359246993#0_0" departPos="5.10" departSpeed="0.00" departDelay="6.00" arrival="160.00" arrivalLane="-675107653#5_0" arrivalPos="68.60" arrivalSpeed="11.79" duration="129.00" routeLength="1171.05" waitingTime="30.00" waitingCount="2" stopTime="0.00" timeLoss="65.56" rerouteNo="0" devices="tripinfo_rute_3_2" vType="DEFAULT_VEHTYPE" speedFactor="0.90" vaporized=""/>
    <tripinfo id="rute_10_8" depart="58.00" departLane="562021794#1_0" departPos="5.10" departSpeed="0.00" departDelay="33.00" arrival="160.00" arrivalLane="560361514#10_0" arrivalPos="202.28" arrivalSpeed="24.42" duration="102.00" routeLength="2020.79" waitingTime="2.00" waitingCount="1" stopTime="0.00" timeLoss="22.00" rerouteNo="0" devices="tripinfo_rute_10_8" vType="DEFAULT_VEHTYPE" speedFactor="0.91" vaporized=""/>
    <tripinfo id="rute_2_1" depart="28.00" departLane="-675107653#5_0" departPos="5.10" departSpeed="0.00" departDelay="3.00" arrival="161.00" arrivalLane="-484446266#8_0" arrivalPos="248.85" arrivalSpeed="15.72" duration="133.00" routeLength="1811.01" waitingTime="9.00" waitingCount="1" stopTime="0.00" timeLoss="53.62" rerouteNo="0" devices="tripinfo_rute_2_1" vType="DEFAULT_VEHTYPE" speedFactor="1.15" vaporized=""/>
    <tripinfo id="rute_4_5" depart="37.00" departLane="154148014#2_0" departPos="5.10" departSpeed="0.00" departDelay="12.00" arrival="165.00" arrivalLane="230291072_0" arrivalPos="179.75" arrivalSpeed="12.01" duration="128.00" routeLength="1479.25" waitingTime="0.00" waitingCount="0" stopTime="0.00" timeLoss="19.04" rerouteNo="0" devices="tripinfo_rute_4_5" vType="DEFAULT_VEHTYPE" speedFactor="0.94" vaporized=""/>
    <tripinfo id="rute_8_5" depart="40.00" departLane="560361514#10_0" departPos="5.10" departSpeed="0.00" departDelay="15.00" arrival="166.00" arrivalLane="230291072_0" arrivalPos="179.75" arrivalSpeed="15.64" duration="126.00" routeLength="1941.69" waitingTime="0.00" waitingCount="0" stopTime="0.00" timeLoss="22.64" rerouteNo="0" devices="tripinfo_rute_8_5" vType="DEFAULT_VEHTYPE" speedFactor="1.15" vaporized=""/>
    <tripinfo id="rute_15_8" depart="49.00" departLane="539383768#0_0" departPos="5.10" departSpeed="0.00" departDelay="24.00" arrival="168.00" arrivalLane="560361514#10_0" arrivalPos="202.28" arrivalSpeed="28.46" duration="119.00" routeLength="2337.02" waitingTime="0.00" waitingCount="0" stopTime="0.00" timeLoss="41.34" rerouteNo="0" devices="tripinfo_rute_15_8" vType="DEFAULT_VEHTYPE" speedFactor="1.15" vaporized=""/>
    <tripinfo id="rute_10_0" depart="25.00" departLane="562021794#1_0" departPos="5.10" departSpeed="0.00" departDelay="0.00" arrival="169.00" arrivalLane="-359409608_0" arrivalPos="135.48" arrivalSpeed="12.70" duration="144.00" routeLength="1864.03" waitingTime="14.00" waitingCount="1" stopTime="0.00" timeLoss="51.45" rerouteNo="0" devices="tripinfo_rute_10_0" vType="DEFAULT_VEHTYPE" speedFactor="0.96" vaporized=""/>
    <tripinfo id="rute_11_3" depart="34.00" departLane="154148013#6_0" departPos="5.10" departSpeed="0.00" departDelay="9.00" arrival="169.00" arrivalLane="359246993#0_0" arrivalPos="70.96" arrivalSpeed="13.58" duration="135.00" routeLength="2593.57" waitingTime="0.00" waitingCount="0" stopTime="0.00" timeLoss="21.60" rerouteNo="0" devices="tripinfo_rute_11_3" vType="DEFAULT_VEHTYPE" speedFactor="0.98" vaporized=""/>
    <tripinfo id="rute_3_9" depart="49.00" departLane="359246993#0_0" departPos="5.10" departSpeed="0.00" departDelay="24.00" arrival="170.00" arrivalLane="560361514#6_0" arrivalPos="442.89" arrivalSpeed="30.44" duration="121.00" routeLength="1186.80" waitingTime="34.00" waitingCount="4" stopTime="0.00" timeLoss="74.49" rerouteNo="0" devices="tripinfo_rute_3_9" vType="DEFAULT_VEHTYPE" speedFactor="1.10" vaporized=""/>
    <tripinfo id="rute_11_4" depart="37.00" departLane="154148013#6_0" departPos="5.10" departSpeed="0.00" departDelay="12.00" arrival="170.00" arrivalLane="154148014#2_0" arrivalPos="6.55" arrivalSpeed="21.92" duration="133.00" routeLength="2756.92" waitingTime="5.00" waitingCount="1" stopTime="0.00" timeLoss="27.29" rerouteNo="0" devices="tripinfo_rute_11_4" vType="DEFAULT_VEHTYPE" speedFactor="0.94" vaporized=""/>
    <tripinfo id="rute_15_1" depart="28.00" departLane="539383768#0_0" departPos="5.10" departSpeed="0.00" departDelay="3.00" arrival="171.00" arrivalLane="-484446266#8_0" arrivalPos="248.85" arrivalSpeed="16.75" duration="143.00" routeLength="3056.12" waitingTime="0.00" waitingCount="0" stopTime="0.00" timeLoss="43.62" rerouteNo="0" devices="tripinfo_rute_15_1" vType="DEFAULT_VEHTYPE" speedFactor="1.24" vaporized=""/>
    <tripinfo id="rute_2_4" depart="34.00" departLane="-675107653#5_0" departPos="5.10" departSpeed="0.00" departDelay="9.00" arrival="172.00" arrivalLane="154148014#2_0" arrivalPos="6.55" arrivalSpeed="23.80" duration="138.00" routeLength="2538.72" waitingTime="0.00" waitingCount="0" stopTime="0.00" timeLoss="46.83" rerouteNo="0" devices="tripinfo_rute_2_4" vType="DEFAULT_VEHTYPE" speedFactor="1.17" vaporized=""/>
    <tripinfo id="rute_5_4" depart="37.00" departLane="230291072_0" departPos="5.10" departSpeed="0.00" departDelay="12.00" arrival="174.00" arrivalLane="154148014#2_1" arrivalPos="6.55" arrivalSpeed="20.79" duration="137.00" routeLength="1782.69" waitingTime="0.00" waitingCount="0" stopTime="0.00" timeLoss="36.85" rerouteNo="0" devices="tripinfo_rute_5_4" vType="DEFAULT_VEHTYPE" speedFactor="1.09" vaporized=""/>
    <tripinfo id="rute_5_15" depart="67.00" departLane="230291072_0" departPos="5.10" departSpeed="0.00" departDelay="42.00" arrival="174.00" arrivalLane="539383768#0_0" arrivalPos="201.66" arrivalSpeed="28.29" duration="107.00" routeLength="1010.36" waitingTime="2.00" waitingCount="1" stopTime="0.00" timeLoss="39.54" rerouteNo="0" devices="tripinfo_rute_5_15" vType="DEFAULT_VEHTYPE" speedFactor="1.02" vaporized=""/>
    <tripinfo id="rute_8_14" depart="64.00" departLane="560361514#10_0" departPos="5.10" departSpeed="0.00" departDelay="39.00" arrival="175.00" arrivalLane="539383768#2_1" arrivalPos="239.65" arrivalSpeed="28.02" duration="111.00" routeLength="2555.02" waitingTime="0.00" waitingCount="0" stopTime="0.00" timeLoss="21.04" rerouteNo="0" devices="tripinfo_rute_8_14" vType="DEFAULT_VEHTYPE" speedFactor="1.04" vaporized=""/>
    <tripinfo id="rute_2_8" depart="48.00" departLane="-675107653#5_0" departPos="5.10" departSpeed="0.00" departDelay="23.00" arrival="176.00" arrivalLane="560361514#10_1" arrivalPos="202.28" arrivalSpeed="31.93" duration="128.00" routeLength="2270.92" waitingTime="3.00" waitingCount="1" stopTime="0.00" timeLoss="46.29" rerouteNo="0" devices="tripinfo_rute_2_8" vType="DEFAULT_VEHTYPE" speedFactor="1.18" vaporized=""/>
    <tripinfo id="rute_11_0" depart="25.00" departLane="154148013#6_0" departPos="5.10" departSpeed="0.00" departDelay="0.00" arrival="177.00" arrivalLane="-359409608_0" arrivalPos="135.48" arrivalSpeed="11.47" duration="152.00" routeLength="1539.72" waitingTime="36.00" waitingCount="1" stopTime="0.00" timeLoss="67.39" rerouteNo="0" devices="tripinfo_rute_11_0" vType="DEFAULT_VEHTYPE" speedFactor="0.91" vaporized=""/>
    <tripinfo id="rute_12_4" depart="37.00" departLane="754594908#4_0" departPos="5.10" departSpeed="0.00" departDelay="12.00" arrival="177.00" arrivalLane="154148014#2_0" arrivalPos="6.55" arrivalSpeed="21.67" duration="140.00" routeLength="3050.35" waitingTime="0.00" waitingCount="0" stopTime="0.00" timeLoss="22.05" rerouteNo="0" devices="tripinfo_rute_12_4" vType="DEFAULT_VEHTYPE" speedFactor="0.94" vaporized=""/>
    <tripinfo id="rute_12_5" depart="40.00" departLane="754594908#4_0" departPos="5.10" departSpeed="0.00" departDelay="15.00" arrival="181.00" arrivalLane="230291072_0" arrivalPos="179.75" arrivalSpeed="11.77" duration="141.00" routeLength="2192.63" waitingTime="5.00" waitingCount="1" stopTime="0.00" timeLoss="25.50" rerouteNo="0" devices="tripinfo_rute_12_5" vType="DEFAULT_VEHTYPE" speedFactor="0.92" vaporized=""/>
    <tripinfo id="rute_15_2" depart="31.00" departLane="539383768#0_0" departPos="5.10" departSpeed="0.00" departDelay="6.00" arrival="182.00" arrivalLane="-675107653#5_0" arrivalPos="68.60" arrivalSpeed="14.16" duration="151.00" routeLength="3154.55" waitingTime="0.00" waitingCount="0" stopTime="0.00" timeLoss="37.25" rerouteNo="0" devices="tripinfo_rute_15_2" vType="DEFAULT_VEHTYPE" speedFactor="1.11" vaporized=""/>
    <tripinfo id="rute_10_12" depart="67.00" departLane="562021794#1_0" departPos="5.10" departSpeed="0.00" departDelay="42.00" arrival="184.00" arrivalLane="754594908#4_1" arrivalPos="190.58" arrivalSpeed="27.18" duration="117.00" routeLength="1569.44" waitingTime="0.00" waitingCount="0" stopTime="0.00" timeLoss="34.05" rerouteNo="0" devices="tripinfo_rute_10_12" vType="DEFAULT_VEHTYPE" speedFactor="1.08" vaporized=""/>
    <tripinfo id="rute_4_15" depart="76.00" departLane="154148014#2_0" departPos="5.10" departSpeed="0.00" departDelay="51.00" arrival="190.00" arrivalLane="539383768#0_1" arrivalPos="201.66" arrivalSpeed="25.71" duration="114.00" routeLength="2195.61" waitingTime="0.00" waitingCount="0" stopTime="0.00" timeLoss="26.37" rerouteNo="0" devices="tripinfo_rute_4_15" vType="DEFAULT_VEHTYPE" speedFactor="0.96" vaporized=""/>
    <tripinfo id="rute_5_14" depart="64.00" departLane="230291072_0" departPos="5.10" departSpeed="0.00" departDelay="39.00" arrival="190.00" arrivalLane="539383768#2_0" arrivalPos="239.65" arrivalSpeed="26.86" duration="126.00" routeLength="1543.67" waitingTime="2.00" waitingCount="1" stopTime="0.00" timeLoss="38.29" rerouteNo="0" devices="tripinfo_rute_5_14" vType="DEFAULT_VEHTYPE" speedFactor="1.01" vaporized=""/>
    <tripinfo id="rute_9_15" depart="69.00" departLane="560361514#6_0" departPos="5.10" departSpeed="0.00" departDelay="44.00" arrival="196.00" arrivalLane="539383768#0_1" arrivalPos="201.66" arrivalSpeed="28.42" duration="127.00" routeLength="2610.97" waitingTime="0.00" waitingCount="0" stopTime="0.00" timeLoss="33.91" rerouteNo="0" devices="tripinfo_rute_9_15" vType="DEFAULT_VEHTYPE" speedFactor="1.04" vaporized=""/>
    <tripinfo id="rute_4_14" depart="72.00" departLane="154148014#2_0" departPos="5.10" departSpeed="0.00" departDelay="47.00" arrival="198.00" arrivalLane="539383768#2_0" arrivalPos="239.65" arrivalSpeed="28.20" duration="126.00" routeLength="2728.92" waitingTime="0.00" waitingCount="0" stopTime="0.00" timeLoss="28.63" rerouteNo="0" devices="tripinfo_rute_4_14" vType="DEFAULT_VEHTYPE" speedFactor="1.06" vaporized=""/>
    <tripinfo id="rute_6_11" depart="55.00" departLane="539383767#1_0" departPos="5.10" departSpeed="0.00" departDelay="30.00" arrival="198.00" arrivalLane="154148013#6_0" arrivalPos="327.33" arrivalSpeed="29.19" duration="143.00" routeLength="2413.00" waitingTime="0.00" waitingCount="0" stopTime="0.00" timeLoss="39.77" rerouteNo="0" devices="tripinfo_rute_6_11" vType="DEFAULT_VEHTYPE" speedFactor="1.07" vaporized=""/>
    <tripinfo id="rute_5_1" depart="28.00" departLane="230291072_0" departPos="5.10" departSpeed="0.00" departDelay="3.00" arrival="200.00" arrivalLane="-484446266#8_0" arrivalPos="248.85" arrivalSpeed="13.96" duration="172.00" routeLength="2227.95" waitingTime="2.00" waitingCount="1" stopTime="0.00" timeLoss="34.98" rerouteNo="0" devices="tripinfo_rute_5_1" vType="DEFAULT_VEHTYPE" speedFactor="1.03" vaporized=""/>
    <tripinfo id="rute_2_3" depart="31.00" departLane="-675107653#5_0" departPos="5.10" departSpeed="0.00" departDelay="6.00" arrival="202.00" arrivalLane="359246993#0_0" arrivalPos="70.96" arrivalSpeed="12.83" duration="171.00" routeLength="2552.59" waitingTime="0.00" waitingCount="0" stopTime="0.00" timeLoss="48.79" rerouteNo="0" devices="tripinfo_rute_2_3" vType="DEFAULT_VEHTYPE" speedFactor="1.01" vaporized=""/>
    <tripinfo id="rute_10_6" depart="43.00" departLane="562021794#1_0" departPos="5.10" departSpeed="0.00" departDelay="18.00" arrival="204.00" arrivalLane="539383767#1_0" arrivalPos="58.17" arrivalSpeed="15.56" duration="161.00" routeLength="1919.45" waitingTime="50.00" waitingCount="3" stopTime="0.00" timeLoss="96.94" rerouteNo="0" devices="tripinfo_rute_10_6" vType="DEFAULT_VEHTYPE" speedFactor="1.18" vaporized=""/>