<?xml version="1.0" encoding="UTF-8"?>

<!-- generated on 06/25/21 10:11:58 by Eclipse SUMO sumo Version 1.8.0
<configuration xmlns:xsi="http://www.w3.org/2001/XMLSchema-instance" xsi:noNamespaceSchemaLocation="http://sumo.dlr.de/xsd/sumoConfiguration.xsd">

    <input>
        <net-file value="0\../BSD.net.xml"/>
        <route-files value="0\bsd_000.rou.xml"/>
        <additional-files value="0\dua_dump_000.add.xml"/>
    </input>

    <output>
        <summary-output value="0\summary_000.xml"/>
        <tripinfo-output value="0\tripinfo_000.xml"/>
    </output>

    <time>
        <begin value="0"/>
    </time>

    <processing>
        <route-steps value="200"/>
        <no-internal-links value="false"/>
        <time-to-teleport value="300"/>
        <time-to-teleport.highways value="0"/>
        <eager-insert value="false"/>
    </processing>

    <report>
        <verbose value="true"/>
        <no-warnings value="false"/>
        <log value="0\iteration_000.sumo.log"/>
        <no-step-log value="true"/>
    </report>

    <random_number>
        <random value="false"/>
    </random_number>

</configuration>
-->

<tripinfos xmlns:xsi="http://www.w3.org/2001/XMLSchema-instance" xsi:noNamespaceSchemaLocation="http://sumo.dlr.de/xsd/tripinfo_file.xsd">
    <tripinfo id="rute_8_4" depart="37.00" departLane="560361514#10_0" departPos="5.10" departSpeed="0.00" departDelay="12.00" arrival="64.00" arrivalLane="154148014#2_0" arrivalPos="6.55" arrivalSpeed="21.19" duration="27.00" routeLength="464.98" waitingTime="0.00" waitingCount="0" stopTime="0.00" timeLoss="9.86" rerouteNo="0" devices="tripinfo_rute_8_4" vType="DEFAULT_VEHTYPE" speedFactor="1.06" vaporized=""/>
    <tripinfo id="rute_4_8" depart="46.00" departLane="154148014#2_0" departPos="5.10" departSpeed="0.00" departDelay="21.00" arrival="77.00" arrivalLane="560361514#10_0" arrivalPos="202.28" arrivalSpeed="25.16" duration="31.00" routeLength="371.08" waitingTime="0.00" waitingCount="0" stopTime="0.00" timeLoss="13.48" rerouteNo="0" devices="tripinfo_rute_4_8" vType="DEFAULT_VEHTYPE" speedFactor="0.91" vaporized=""/>
    <tripinfo id="rute_11_10" depart="55.00" departLane="154148013#6_0" departPos="5.10" departSpeed="0.00" departDelay="30.00" arrival="81.00" arrivalLane="562021794#1_0" arrivalPos="11.24" arrivalSpeed="18.18" duration="26.00" routeLength="474.47" waitingTime="0.00" waitingCount="0" stopTime="0.00" timeLoss="7.22" rerouteNo="0" devices="tripinfo_rute_11_10" vType="DEFAULT_VEHTYPE" speedFactor="0.92" vaporized=""/>
    <tripinfo id="rute_3_4" depart="34.00" departLane="359246993#0_0" departPos="5.10" departSpeed="0.00" departDelay="9.00" arrival="82.00" arrivalLane="154148014#2_0" arrivalPos="6.55" arrivalSpeed="21.03" duration="48.00" routeLength="612.76" waitingTime="0.00" waitingCount="0" stopTime="0.00" timeLoss="17.27" rerouteNo="0" devices="tripinfo_rute_3_4" vType="DEFAULT_VEHTYPE" speedFactor="0.88" vaporized=""/>
    <tripinfo id="rute_4_2" depart="31.00" departLane="154148014#2_0" departPos="5.10" departSpeed="0.00" departDelay="6.00" arrival="93.00" arrivalLane="-675107653#5_0" arrivalPos="68.60" arrivalSpeed="13.27" duration="62.00" routeLength="1190.24" waitingTime="0.00" waitingCount="0" stopTime="0.00" timeLoss="11.64" rerouteNo="0" devices="tripinfo_rute_4_2" vType="DEFAULT_VEHTYPE" speedFactor="1.02" vaporized=""/>
    <tripinfo id="rute_4_1" depart="28.00" departLane="154148014#2_0" departPos="5.10" departSpeed="0.00" departDelay="3.00" arrival="96.00" arrivalLane="-484446266#8_0" arrivalPos="248.85" arrivalSpeed="6.12" duration="68.00" routeLength="1090.18" waitingTime="0.00" waitingCount="0" stopTime="0.00" timeLoss="23.15" rerouteNo="0" devices="tripinfo_rute_4_1" vType="DEFAULT_VEHTYPE" speedFactor="1.12" vaporized=""/>
    <tripinfo id="rute_15_14" depart="67.00" departLane="539383768#0_0" departPos="5.10" departSpeed="0.00" departDelay="42.00" arrival="99.00" arrivalLane="539383768#2_1" arrivalPos="239.65" arrivalSpeed="30.50" duration="32.00" routeLength="729.87" waitingTime="0.00" waitingCount="0" stopTime="0.00" timeLoss="8.68" rerouteNo="0" devices="tripinfo_rute_15_14" vType="DEFAULT_VEHTYPE" speedFactor="1.13" vaporized=""/>
    <tripinfo id="rute_14_13" depart="64.00" departLane="539383768#2_0" departPos="5.10" departSpeed="0.00" departDelay="39.00" arrival="100.00" arrivalLane="539383768#6_1" arrivalPos="45.63" arrivalSpeed="29.43" duration="36.00" routeLength="831.19" waitingTime="0.00" waitingCount="0" stopTime="0.00" timeLoss="7.23" rerouteNo="0" devices="tripinfo_rute_14_13" vType="DEFAULT_VEHTYPE" speedFactor="1.06" vaporized=""/>
    <tripinfo id="rute_9_1" depart="27.00" departLane="560361514#6_0" departPos="5.10" departSpeed="0.00" departDelay="2.00" arrival="102.00" arrivalLane="-484446266#8_0" arrivalPos="248.85" arrivalSpeed="7.56" duration="75.00" routeLength="1240.02" waitingTime="0.00" waitingCount="0" stopTime="0.00" timeLoss="24.04" rerouteNo="0" devices="tripinfo_rute_9_1" vType="DEFAULT_VEHTYPE" speedFactor="1.12" vaporized=""/>
    <tripinfo id="rute_9_8" depart="49.00" departLane="560361514#6_0" departPos="5.10" departSpeed="0.00" departDelay="24.00" arrival="104.00" arrivalLane="560361514#10_1" arrivalPos="202.28" arrivalSpeed="29.95" duration="55.00" routeLength="786.44" waitingTime="11.00" waitingCount="1" stopTime="0.00" timeLoss="29.67" rerouteNo="0" devices="tripinfo_rute_9_8" vType="DEFAULT_VEHTYPE" speedFactor="1.13" vaporized=""/>
    <tripinfo id="rute_8_1" depart="28.00" departLane="560361514#10_0" departPos="5.10" departSpeed="0.00" departDelay="3.00" arrival="108.00" arrivalLane="-484446266#8_0" arrivalPos="248.85" arrivalSpeed="14.45" duration="80.00" routeLength="1552.08" waitingTime="0.00" waitingCount="0" stopTime="0.00" timeLoss="20.00" rerouteNo="0" devices="tripinfo_rute_8_1" vType="DEFAULT_VEHTYPE" speedFactor="1.10" vaporized=""/>
    <tripinfo id="rute_3_8" depart="46.00" departLane="359246993#0_0" departPos="5.10" departSpeed="0.00" departDelay="21.00" arrival="115.00" arrivalLane="560361514#10_1" arrivalPos="202.28" arrivalSpeed="27.95" duration="69.00" routeLength="344.96" waitingTime="27.00" waitingCount="2" stopTime="0.00" timeLoss="52.99" rerouteNo="0" devices="tripinfo_rute_3_8" vType="DEFAULT_VEHTYPE" speedFactor="1.02" vaporized=""/>
    <tripinfo id="rute_10_2" depart="31.00" departLane="562021794#1_0" departPos="5.10" departSpeed="0.00" departDelay="6.00" arrival="115.00" arrivalLane="-675107653#5_0" arrivalPos="68.60" arrivalSpeed="14.40" duration="84.00" routeLength="1290.70" waitingTime="11.00" waitingCount="1" stopTime="0.00" timeLoss="30.88" rerouteNo="0" devices="tripinfo_rute_10_2" vType="DEFAULT_VEHTYPE" speedFactor="1.07" vaporized=""/>
    <tripinfo id="rute_15_13" depart="64.00" departLane="539383768#0_0" departPos="5.10" departSpeed="0.00" departDelay="39.00" arrival="117.00" arrivalLane="539383768#6_2" arrivalPos="45.63" arrivalSpeed="29.22" duration="53.00" routeLength="1326.51" waitingTime="0.00" waitingCount="0" stopTime="0.00" timeLoss="8.56" rerouteNo="0" devices="tripinfo_rute_15_13" vType="DEFAULT_VEHTYPE" speedFactor="1.10" vaporized=""/>
    <tripinfo id="rute_4_9" depart="49.00" departLane="154148014#2_0" departPos="5.10" departSpeed="0.00" departDelay="24.00" arrival="118.00" arrivalLane="560361514#6_1" arrivalPos="442.89" arrivalSpeed="28.05" duration="69.00" routeLength="1205.99" waitingTime="0.00" waitingCount="0" stopTime="0.00" timeLoss="25.43" rerouteNo="0" devices="tripinfo_rute_4_9" vType="DEFAULT_VEHTYPE" speedFactor="1.04" vaporized=""/>
    <tripinfo id="rute_8_2" depart="31.00" departLane="560361514#10_0" departPos="5.10" departSpeed="0.00" departDelay="6.00" arrival="120.00" arrivalLane="-675107653#5_0" arrivalPos="68.60" arrivalSpeed="13.56" duration="89.00" routeLength="1652.14" waitingTime="0.00" waitingCount="0" stopTime="0.00" timeLoss="22.04" rerouteNo="0" devices="tripinfo_rute_8_2" vType="DEFAULT_VEHTYPE" speedFactor="1.03" vaporized=""/>
    <tripinfo id="rute_10_1" depart="28.00" departLane="562021794#1_0" departPos="5.10" departSpeed="0.00" departDelay="3.00" arrival="122.00" arrivalLane="-484446266#8_0" arrivalPos="248.85" arrivalSpeed="12.99" duration="94.00" routeLength="1560.88" waitingTime="5.00" waitingCount="1" stopTime="0.00" timeLoss="25.30" rerouteNo="0" devices="tripinfo_rute_10_1" vType="DEFAULT_VEHTYPE" speedFactor="1.00" vaporized=""/>
    <tripinfo id="rute_6_12" depart="58.00" departLane="539383767#1_0" departPos="5.10" departSpeed="0.00" departDelay="33.00" arrival="124.00" arrivalLane="754594908#4_1" arrivalPos="190.58" arrivalSpeed="26.23" duration="66.00" routeLength="763.47" waitingTime="0.00" waitingCount="0" stopTime="0.00" timeLoss="13.94" rerouteNo="0" devices="tripinfo_rute_6_12" vType="DEFAULT_VEHTYPE" speedFactor="0.96" vaporized=""/>
    <tripinfo id="rute_9_4" depart="36.00" departLane="560361514#6_0" departPos="5.10" departSpeed="0.00" departDelay="11.00" arrival="126.00" arrivalLane="154148014#2_0" arrivalPos="6.55" arrivalSpeed="20.87" duration="90.00" routeLength="1054.24" waitingTime="19.00" waitingCount="3" stopTime="0.00" timeLoss="49.11" rerouteNo="0" devices="tripinfo_rute_9_4" vType="DEFAULT_VEHTYPE" speedFactor="0.95" vaporized=""/>
    <tripinfo id="rute_8_9" depart="49.00" departLane="560361514#10_0" departPos="5.10" departSpeed="0.00" departDelay="24.00" arrival="129.00" arrivalLane="560361514#6_1" arrivalPos="442.89" arrivalSpeed="27.32" duration="80.00" routeLength="1669.52" waitingTime="0.00" waitingCount="0" stopTime="0.00" timeLoss="24.40" rerouteNo="0" devices="tripinfo_rute_8_9" vType="DEFAULT_VEHTYPE" speedFactor="1.12" vaporized=""/>
    <tripinfo id="rute_1_2" depart="28.00" departLane="-484446266#8_0" departPos="5.10" departSpeed="0.00" departDelay="3.00" arrival="130.00" arrivalLane="-675107653#5_0" arrivalPos="68.60" arrivalSpeed="11.93" duration="102.00" routeLength="852.46" waitingTime="15.00" waitingCount="1" stopTime="0.00" timeLoss="35.09" rerouteNo="0" devices="tripinfo_rute_1_2" vType="DEFAULT_VEHTYPE" speedFactor="0.88" vaporized=""/>
    <tripinfo id="rute_9_3" depart="33.00" departLane="560361514#6_0" departPos="5.10" departSpeed="0.00" departDelay="8.00" arrival="130.00" arrivalLane="359246993#0_0" arrivalPos="70.96" arrivalSpeed="6.68" duration="97.00" routeLength="890.89" waitingTime="6.00" waitingCount="1" stopTime="0.00" timeLoss="47.71" rerouteNo="0" devices="tripinfo_rute_9_3" vType="DEFAULT_VEHTYPE" speedFactor="1.00" vaporized=""/>
    <tripinfo id="rute_4_3" depart="34.00" departLane="154148014#2_0" departPos="5.10" departSpeed="0.00" departDelay="9.00" arrival="132.00" arrivalLane="359246993#0_0" arrivalPos="70.96" arrivalSpeed="7.87" duration="98.00" routeLength="748.89" waitingTime="16.00" waitingCount="1" stopTime="0.00" timeLoss="51.39" rerouteNo="0" devices="tripinfo_rute_4_3" vType="DEFAULT_VEHTYPE" speedFactor="0.99" vaporized=""/>
    <tripinfo id="rute_10_4" depart="37.00" departLane="562021794#1_0" departPos="5.10" departSpeed="0.00" departDelay="12.00" arrival="132.00" arrivalLane="154148014#2_0" arrivalPos="6.55" arrivalSpeed="24.71" duration="95.00" routeLength="2288.59" waitingTime="0.00" waitingCount="0" stopTime="0.00" timeLoss="16.64" rerouteNo="0" devices="tripinfo_rute_10_4" vType="DEFAULT_VEHTYPE" speedFactor="1.06" vaporized=""/>
    <tripinfo id="rute_9_2" depart="30.00" departLane="560361514#6_0" departPos="5.10" departSpeed="0.00" departDelay="5.00" arrival="133.00" arrivalLane="-675107653#5_0" arrivalPos="68.60" arrivalSpeed="13.63" duration="103.00" routeLength="1340.08" waitingTime="15.00" waitingCount="1" stopTime="0.00" timeLoss="44.63" rerouteNo="0" devices="tripinfo_rute_9_2" vType="DEFAULT_VEHTYPE" speedFactor="1.02" vaporized=""/>
    <tripinfo id="rute_8_3" depart="34.00" departLane="560361514#10_0" departPos="5.10" departSpeed="0.00" departDelay="9.00" arrival="134.00" arrivalLane="359246993#0_0" arrivalPos="70.96" arrivalSpeed="11.51" duration="100.00" routeLength="1212.42" waitingTime="0.00" waitingCount="0" stopTime="0.00" timeLoss="37.81" rerouteNo="0" devices="tripinfo_rute_8_3" vType="DEFAULT_VEHTYPE" speedFactor="1.02" vaporized=""/>
    <tripinfo id="rute_10_9" depart="65.00" departLane="562021794#1_0" departPos="5.10" departSpeed="0.00" departDelay="40.00" arrival="135.00" arrivalLane="560361514#6_1" arrivalPos="442.89" arrivalSpeed="31.71" duration="70.00" routeLength="1672.14" waitingTime="0.00" waitingCount="0" stopTime="0.00" timeLoss="16.98" rerouteNo="0" devices="tripinfo_rute_10_9" vType="DEFAULT_VEHTYPE" speedFactor="1.14" vaporized=""/>
    <tripinfo id="rute_15_5" depart="40.00" departLane="539383768#0_0" departPos="5.10" departSpeed="0.00" departDelay="15.00" arrival="139.00" arrivalLane="230291072_0" arrivalPos="179.75" arrivalSpeed="13.46" duration="99.00" routeLength="1109.67" waitingTime="1.00" waitingCount="1" stopTime="0.00" timeLoss="32.95" rerouteNo="0" devices="tripinfo_rute_15_5" vType="DEFAULT_VEHTYPE" speedFactor="1.04" vaporized=""/>
    <tripinfo id="rute_11_1" depart="28.00" departLane="154148013#6_0" departPos="5.10" departSpeed="0.00" departDelay="3.00" arrival="142.00" arrivalLane="-484446266#8_0" arrivalPos="248.85" arrivalSpeed="13.94" duration="114.00" routeLength="2029.21" waitingTime="4.00" waitingCount="1" stopTime="0.00" timeLoss="29.00" rerouteNo="0" devices="tripinfo_rute_11_1" vType="DEFAULT_VEHTYPE" speedFactor="1.00" vaporized=""/>
    <tripinfo id="rute_11_9" depart="52.00" departLane="154148013#6_0" departPos="5.10" departSpeed="0.00" departDelay="27.00" arrival="143.00" arrivalLane="560361514#6_1" arrivalPos="442.89" arrivalSpeed="26.33" duration="91.00" routeLength="2140.47" waitingTime="0.00" waitingCount="0" stopTime="0.00" timeLoss="10.39" rerouteNo="0" devices="tripinfo_rute_11_9" vType="DEFAULT_VEHTYPE" speedFactor="0.96" vaporized=""/>
    <tripinfo id="rute_11_8" depart="49.00" departLane="154148013#6_0" departPos="5.10" departSpeed="0.00" departDelay="24.00" arrival="144.00" arrivalLane="560361514#10_1" arrivalPos="202.28" arrivalSpeed="31.62" duration="95.00" routeLength="2489.12" waitingTime="0.00" waitingCount="0" stopTime="0.00" timeLoss="16.22" rerouteNo="0" devices="tripinfo_rute_11_8" vType="DEFAULT_VEHTYPE" speedFactor="1.14" vaporized=""/>
    <tripinfo id="rute_11_2" depart="31.00" departLane="154148013#6_0" departPos="5.10" departSpeed="0.00" departDelay="6.00" arrival="145.00" arrivalLane="-675107653#5_0" arrivalPos="68.60" arrivalSpeed="13.70" duration="114.00" routeLength="1759.03" waitingTime="16.00" waitingCount="1" stopTime="0.00" timeLoss="41.95" rerouteNo="0" devices="tripinfo_rute_11_2" vType="DEFAULT_VEHTYPE" speedFactor="1.03" vaporized=""/>
    <tripinfo id="rute_3_1" depart="28.00" departLane="359246993#0_0" departPos="5.10" departSpeed="0.00" departDelay="3.00" arrival="147.00" arrivalLane="-484446266#8_0" arrivalPos="248.85" arrivalSpeed="12.73" duration="119.00" routeLength="1070.99" waitingTime="32.00" waitingCount="3" stopTime="0.00" timeLoss="63.48" rerouteNo="0" devices="tripinfo_rute_3_1" vType="DEFAULT_VEHTYPE" speedFactor="1.00" vaporized=""/>
    <tripinfo id="rute_12_14" depart="64.00" departLane="754594908#4_0" departPos="5.10" departSpeed="0.00" departDelay="39.00" arrival="150.00" arrivalLane="539383768#2_0" arrivalPos="239.65" arrivalSpeed="29.45" duration="86.00" routeLength="1839.62" waitingTime="1.00" waitingCount="1" stopTime="0.00" timeLoss="21.48" rerouteNo="0" devices="tripinfo_rute_12_14" vType="DEFAULT_VEHTYPE" speedFactor="1.07" vaporized=""/>
    <tripinfo id="rute_15_4" depart="37.00" departLane="539383768#0_0" departPos="5.10" departSpeed="0.00" departDelay="12.00" arrival="150.00" arrivalLane="154148014#2_0" arrivalPos="6.55" arrivalSpeed="19.89" duration="113.00" routeLength="1967.39" waitingTime="1.00" waitingCount="1" stopTime="0.00" timeLoss="38.57" rerouteNo="0" devices="tripinfo_rute_15_4" vType="DEFAULT_VEHTYPE" speedFactor="0.99" vaporized=""/>
    <tripinfo id="rute_12_15" depart="67.00" departLane="754594908#4_0" departPos="5.10" departSpeed="0.00" departDelay="42.00" arrival="152.00" arrivalLane="539383768#0_0" arrivalPos="201.66" arrivalSpeed="27.49" duration="85.00" routeLength="1779.08" waitingTime="0.00" waitingCount="0" stopTime="0.00" timeLoss="17.55" rerouteNo="0" devices="tripinfo_rute_12_15" vType="DEFAULT_VEHTYPE" speedFactor="1.00" vaporized=""/>
    <tripinfo id="rute_0_11" depart="55.00" departLane="-359409608_0" departPos="5.10" departSpeed="0.00" departDelay="30.00" arrival="155.00" arrivalLane="154148013#6_1" arrivalPos="327.33" arrivalSpeed="25.00" duration="100.00" routeLength="1252.42" waitingTime="0.00" waitingCount="0" stopTime="0.00" timeLoss="39.43" rerouteNo="0" devices="tripinfo_rute_0_11" vType="DEFAULT_VEHTYPE" speedFactor="1.09" vaporized=""/>
    <tripinfo id="rute_11_4" depart="37.00" departLane="154148013#6_0" departPos="5.10" departSpeed="0.00" departDelay="12.00" arrival="155.00" arrivalLane="154148014#2_0" arrivalPos="6.55" arrivalSpeed="24.09" duration="118.00" routeLength="2756.92" waitingTime="0.00" waitingCount="0" stopTime="0.00" timeLoss="11.14" rerouteNo="0" devices="tripinfo_rute_11_4" vType="DEFAULT_VEHTYPE" speedFactor="0.94" vaporized=""/>
    <tripinfo id="rute_3_2" depart="31.00" departLane="359246993#0_0" departPos="5.10" departSpeed="0.00" departDelay="6.00" arrival="157.00" arrivalLane="-675107653#5_0" arrivalPos="68.60" arrivalSpeed="11.40" duration="126.00" routeLength="1171.05" waitingTime="30.00" waitingCount="3" stopTime="0.00" timeLoss="63.40" rerouteNo="0" devices="tripinfo_rute_3_2" vType="DEFAULT_VEHTYPE" speedFactor="0.90" vaporized=""/>
    <tripinfo id="rute_0_10" depart="52.00" departLane="-359409608_0" departPos="5.10" departSpeed="0.00" departDelay="27.00" arrival="160.00" arrivalLane="562021794#1_0" arrivalPos="11.24" arrivalSpeed="23.08" duration="108.00" routeLength="1404.66" waitingTime="0.00" waitingCount="0" stopTime="0.00" timeLoss="25.79" rerouteNo="0" devices="tripinfo_rute_0_10" vType="DEFAULT_VEHTYPE" speedFactor="0.86" vaporized=""/>
    <tripinfo id="rute_2_0" depart="25.00" departLane="-675107653#5_0" departPos="5.10" departSpeed="0.00" departDelay="0.00" arrival="160.00" arrivalLane="-359409608_0" arrivalPos="135.48" arrivalSpeed="15.56" duration="135.00" routeLength="2108.53" waitingTime="3.00" waitingCount="1" stopTime="0.00" timeLoss="42.84" rerouteNo="0" devices="tripinfo_rute_2_0" vType="DEFAULT_VEHTYPE" speedFactor="1.18" vaporized=""/>
    <tripinfo id="rute_10_3" depart="34.00" departLane="562021794#1_0" departPos="5.10" departSpeed="0.00" departDelay="9.00" arrival="160.00" arrivalLane="359246993#0_0" arrivalPos="70.96" arrivalSpeed="11.86" duration="126.00" routeLength="2125.24" waitingTime="0.00" waitingCount="0" stopTime="0.00" timeLoss="22.77" rerouteNo="0" devices="tripinfo_rute_10_3" vType="DEFAULT_VEHTYPE" speedFactor="0.93" vaporized=""/>
    <tripinfo id="rute_10_8" depart="62.00" departLane="562021794#1_0" departPos="5.10" departSpeed="0.00" departDelay="37.00" arrival="160.00" arrivalLane="560361514#10_1" arrivalPos="202.28" arrivalSpeed="25.19" duration="98.00" routeLength="2020.79" waitingTime="0.00" waitingCount="0" stopTime="0.00" timeLoss="17.97" rerouteNo="0" devices="tripinfo_rute_10_8" vType="DEFAULT_VEHTYPE" speedFactor="0.91" vaporized=""/>
    <tripinfo id="rute_4_5" depart="37.00" departLane="154148014#2_0" departPos="5.10" departSpeed="0.00" departDelay="12.00" arrival="164.00" arrivalLane="230291072_0" arrivalPos="179.75" arrivalSpeed="12.28" duration="127.00" routeLength="1479.25" waitingTime="0.00" waitingCount="0" stopTime="0.00" timeLoss="17.99" rerouteNo="0" devices="tripinfo_rute_4_5" vType="DEFAULT_VEHTYPE" speedFactor="0.94" vaporized=""/>
    <tripinfo id="rute_15_1" depart="28.00" departLane="539383768#0_0" departPos="5.10" departSpeed="0.00" departDelay="3.00" arrival="165.00" arrivalLane="-484446266#8_0" arrivalPos="248.85" arrivalSpeed="16.67" duration="137.00" routeLength="3054.49" waitingTime="0.00" waitingCount="0" stopTime="0.00" timeLoss="38.60" rerouteNo="0" devices="tripinfo_rute_15_1" vType="DEFAULT_VEHTYPE" speedFactor="1.24" vaporized=""/>
    <tripinfo id="rute_8_5" depart="40.00" departLane="560361514#10_0" departPos="5.10" departSpeed="0.00" departDelay="15.00" arrival="166.00" arrivalLane="230291072_0" arrivalPos="179.75" arrivalSpeed="14.76" duration="126.00" routeLength="1941.69" waitingTime="0.00" waitingCount="0" stopTime="0.00" timeLoss="22.60" rerouteNo="0" devices="tripinfo_rute_8_5" vType="DEFAULT_VEHTYPE" speedFactor="1.15" vaporized=""/>
    <tripinfo id="rute_8_15" depart="76.00" departLane="560361514#10_0" departPos="5.10" departSpeed="0.00" departDelay="51.00" arrival="166.00" arrivalLane="539383768#0_2" arrivalPos="201.66" arrivalSpeed="32.80" duration="90.00" routeLength="2021.71" waitingTime="0.00" waitingCount="0" stopTime="0.00" timeLoss="28.83" rerouteNo="0" devices="tripinfo_rute_8_15" vType="DEFAULT_VEHTYPE" speedFactor="1.23" vaporized=""/>
    <tripinfo id="rute_10_0" depart="25.00" departLane="562021794#1_0" departPos="5.10" departSpeed="0.00" departDelay="0.00" arrival="168.00" arrivalLane="-359409608_0" arrivalPos="135.48" arrivalSpeed="12.67" duration="143.00" routeLength="1864.03" waitingTime="14.00" waitingCount="1" stopTime="0.00" timeLoss="50.20" rerouteNo="0" devices="tripinfo_rute_10_0" vType="DEFAULT_VEHTYPE" speedFactor="0.96" vaporized=""/>
    <tripinfo id="rute_2_9" depart="49.00" departLane="-675107653#5_0" departPos="5.10" departSpeed="0.00" departDelay="24.00" arrival="169.00" arrivalLane="560361514#6_1" arrivalPos="442.89" arrivalSpeed="26.82" duration="120.00" routeLength="1922.27" waitingTime="2.00" waitingCount="1" stopTime="0.00" timeLoss="44.34" rerouteNo="0" devices="tripinfo_rute_2_9" vType="DEFAULT_VEHTYPE" speedFactor="1.10" vaporized=""/>
    <tripinfo id="rute_11_3" depart="34.00" departLane="154148013#6_0" departPos="5.10" departSpeed="0.00" departDelay="9.00" arrival="170.00" arrivalLane="359246993#0_0" arrivalPos="70.96" arrivalSpeed="12.86" duration="136.00" routeLength="2593.57" waitingTime="0.00" waitingCount="0" stopTime="0.00" timeLoss="22.60" rerouteNo="0" devices="tripinfo_rute_11_3" vType="DEFAULT_VEHTYPE" speedFactor="0.98" vaporized=""/>
    <tripinfo id="rute_5_4" depart="37.00" departLane="230291072_0" departPos="5.10" departSpeed="0.00" departDelay="12.00" arrival="172.00" arrivalLane="154148014#2_1" arrivalPos="6.55" arrivalSpeed="21.38" duration="135.00" routeLength="1782.69" waitingTime="0.00" waitingCount="0" stopTime="0.00" timeLoss="34.57" rerouteNo="0" devices="tripinfo_rute_5_4" vType="DEFAULT_VEHTYPE" speedFactor="1.09" vaporized=""/>
    <tripinfo id="rute_2_8" depart="46.00" departLane="-675107653#5_0" departPos="5.10" departSpeed="0.00" departDelay="21.00" arrival="173.00" arrivalLane="560361514#10_1" arrivalPos="202.28" arrivalSpeed="31.59" duration="127.00" routeLength="2270.92" waitingTime="0.00" waitingCount="0" stopTime="0.00" timeLoss="45.08" rerouteNo="0" devices="tripinfo_rute_2_8" vType="DEFAULT_VEHTYPE" speedFactor="1.18" vaporized=""/>
    <tripinfo id="rute_15_8" depart="49.00" departLane="539383768#0_0" departPos="5.10" departSpeed="0.00" departDelay="24.00" arrival="173.00" arrivalLane="560361514#10_0" arrivalPos="202.28" arrivalSpeed="29.54" duration="124.00" routeLength="2337.02" waitingTime="0.00" waitingCount="0" stopTime="0.00" timeLoss="45.82" rerouteNo="0" devices="tripinfo_rute_15_8" vType="DEFAULT_VEHTYPE" speedFactor="1.15" vaporized=""/>
    <tripinfo id="rute_3_9" depart="49.00" departLane="359246993#0_0" departPos="5.10" departSpeed="0.00" departDelay="24.00" arrival="174.00" arrivalLane="560361514#6_0" arrivalPos="442.89" arrivalSpeed="29.64" duration="125.00" routeLength="1186.80" waitingTime="34.00" waitingCount="4" stopTime="0.00" timeLoss="79.03" rerouteNo="0" devices="tripinfo_rute_3_9" vType="DEFAULT_VEHTYPE" speedFactor="1.10" vaporized=""/>
    <tripinfo id="rute_2_1" depart="28.00" departLane="-675107653#5_0" departPos="5.10" departSpeed="0.00" departDelay="3.00" arrival="175.00" arrivalLane="-484446266#8_0" arrivalPos="248.85" arrivalSpeed="15.87" duration="147.00" routeLength="1811.01" waitingTime="10.00" waitingCount="2" stopTime="0.00" timeLoss="68.35" rerouteNo="0" devices="tripinfo_rute_2_1" vType="DEFAULT_VEHTYPE" speedFactor="1.15" vaporized=""/>
    <tripinfo id="rute_11_0" depart="25.00" departLane="154148013#6_0" departPos="5.10" departSpeed="0.00" departDelay="0.00" arrival="176.00" arrivalLane="-359409608_0" arrivalPos="135.48" arrivalSpeed="12.16" duration="151.00" routeLength="1539.72" waitingTime="34.00" waitingCount="1" stopTime="0.00" timeLoss="66.32" rerouteNo="0" devices="tripinfo_rute_11_0" vType="DEFAULT_VEHTYPE" speedFactor="0.91" vaporized=""/>
    <tripinfo id="rute_2_4" depart="34.00" departLane="-675107653#5_0" departPos="5.10" departSpeed="0.00" departDelay="9.00" arrival="177.00" arrivalLane="154148014#2_0" arrivalPos="6.55" arrivalSpeed="24.89" duration="143.00" routeLength="2538.72" waitingTime="2.00" waitingCount="1" stopTime="0.00" timeLoss="51.72" rerouteNo="0" devices="tripinfo_rute_2_4" vType="DEFAULT_VEHTYPE" speedFactor="1.17" vaporized=""/>
    <tripinfo id="rute_12_4" depart="37.00" departLane="754594908#4_0" departPos="5.10" departSpeed="0.00" departDelay="12.00" arrival="182.00" arrivalLane="154148014#2_1" arrivalPos="6.55" arrivalSpeed="21.08" duration="145.00" routeLength="3048.72" waitingTime="2.00" waitingCount="1" stopTime="0.00" timeLoss="26.83" rerouteNo="0" devices="tripinfo_rute_12_4" vType="DEFAULT_VEHTYPE" speedFactor="0.94" vaporized=""/>
    <tripinfo id="rute_12_5" depart="40.00" departLane="754594908#4_0" departPos="5.10" departSpeed="0.00" departDelay="15.00" arrival="182.00" arrivalLane="230291072_0" arrivalPos="179.75" arrivalSpeed="11.79" duration="142.00" routeLength="2192.63" waitingTime="5.00" waitingCount="1" stopTime="0.00" timeLoss="26.27" rerouteNo="0" devices="tripinfo_rute_12_5" vType="DEFAULT_VEHTYPE" speedFactor="0.92" vaporized=""/>
    <tripinfo id="rute_8_14" depart="73.00" departLane="560361514#10_0" departPos="5.10" departSpeed="0.00" departDelay="48.00" arrival="186.00" arrivalLane="539383768#2_2" arrivalPos="239.65" arrivalSpeed="28.58" duration="113.00" routeLength="2555.02" waitingTime="0.00" waitingCount="0" stopTime="0.00" timeLoss="21.38" rerouteNo="0" devices="tripinfo_rute_8_14" vType="DEFAULT_VEHTYPE" speedFactor="1.04" vaporized=""/>
    <tripinfo id="rute_9_15" depart="73.00" departLane="560361514#6_0" departPos="5.10" departSpeed="0.00" departDelay="48.00" arrival="187.00" arrivalLane="539383768#0_1" arrivalPos="201.66" arrivalSpeed="28.24" duration="114.00" routeLength="2610.97" waitingTime="0.00" waitingCount="0" stopTime="0.00" timeLoss="21.47" rerouteNo="0" devices="tripinfo_rute_9_15" vType="DEFAULT_VEHTYPE" speedFactor="1.04" vaporized=""/>
    <tripinfo id="rute_5_15" depart="67.00" departLane="230291072_0" departPos="5.10" departSpeed="0.00" departDelay="42.00" arrival="189.00" arrivalLane="539383768#0_0" arrivalPos="201.66" arrivalSpeed="27.22" duration="122.00" routeLength="1010.36" waitingTime="6.00" waitingCount="2" stopTime="0.00" timeLoss="55.10" rerouteNo="0" devices="tripinfo_rute_5_15" vType="DEFAULT_VEHTYPE" speedFactor="1.02" vaporized=""/>
    <tripinfo id="rute_15_2" depart="31.00" departLane="539383768#0_0" departPos="5.10" departSpeed="0.00" departDelay="6.00" arrival="189.00" arrivalLane="-675107653#5_0" arrivalPos="68.60" arrivalSpeed="14.78" duration="158.00" routeLength="3156.18" waitingTime="1.00" waitingCount="1" stopTime="0.00" timeLoss="44.44" rerouteNo="0" devices="tripinfo_rute_15_2" vType="DEFAULT_VEHTYPE" speedFactor="1.11" vaporized=""/>
    <tripinfo id="rute_2_3" depart="31.00" departLane="-675107653#5_0" departPos="5.10" departSpeed="0.00" departDelay="6.00" arrival="195.00" arrivalLane="359246993#0_0" arrivalPos="70.96" arrivalSpeed="12.68" duration="164.00" routeLength="2375.37" waitingTime="7.00" waitingCount="1" stopTime="0.00" timeLoss="47.88" rerouteNo="0" devices="tripinfo_rute_2_3" vType="DEFAULT_VEHTYPE" speedFactor="1.01" vaporized=""/>
    <tripinfo id="rute_4_14" depart="71.00" departLane="154148014#2_0" departPos="5.10" departSpeed="0.00" departDelay="46.00" arrival="195.00" arrivalLane="539383768#2_1" arrivalPos="239.65" arrivalSpeed="28.69" duration="124.00" routeLength="2728.92" waitingTime="0.00" waitingCount="0" stopTime="0.00" timeLoss="26.60" rerouteNo="0" devices="tripinfo_rute_4_14" vType="DEFAULT_VEHTYPE" speedFactor="1.06" vaporized=""/>
    <tripinfo id="rute_5_1" depart="28.00" departLane="230291072_0" departPos="5.10" departSpeed="0.00" departDelay="3.00" arrival="198.00" arrivalLane="-484446266#8_0" arrivalPos="248.85" arrivalSpeed="13.66" duration="170.00" routeLength="2227.95" waitingTime="2.00" waitingCount="1" stopTime="0.00" timeLoss="32.74" rerouteNo="0" devices="tripinfo_rute_5_1" vType="DEFAULT_VEHTYPE" speedFactor="1.03" vaporized=""/>
    <tripinfo id="rute_5_14" depart="64.00" departLane="230291072_0" departPos="5.10" departSpeed="0.00" departDelay="39.00" arrival="198.00" arrivalLane="539383768#2_0" arrivalPos="239.65" arrivalSpeed="27.76" duration="134.00" routeLength="1543.67" waitingTime="4.00" waitingCount="1" stopTime="0.00" timeLoss="46.35" rerouteNo="0" devices="tripinfo_rute_5_14" vType="DEFAULT_VEHTYPE" speedFactor="1.01" vaporized=""/>
    <tripinfo id="rute_4_15" depart="74.00" departLane="154148014#2_0" departPos="5.10" departSpeed="0.00" departDelay="49.00" arrival="199.00" arrivalLane="539383768#0_1" arrivalPos="201.66" arrivalSpeed="26.40" duration="125.00" routeLength="2195.61" waitingTime="10.00" waitingCount="1" stopTime="0.00" timeLoss="37.53" rerouteNo="0" devices="tripinfo_rute_4_15" vType="DEFAULT_VEHTYPE" speedFactor="0.96" vaporized=""/>