<?xml version="1.0" encoding="UTF-8"?>

<!-- generated on 06/23/21 13:24:58 by Eclipse SUMO sumo Version 1.8.0
<configuration xmlns:xsi="http://www.w3.org/2001/XMLSchema-instance" xsi:noNamespaceSchemaLocation="http://sumo.dlr.de/xsd/sumoConfiguration.xsd">

    <input>
        <net-file value="1\../BSD.net.xml"/>
        <route-files value="1\bsd_001.rou.xml"/>
        <additional-files value="1\dua_dump_001.add.xml"/>
    </input>

    <output>
        <summary-output value="1\summary_001.xml"/>
        <tripinfo-output value="1\tripinfo_001.xml"/>
    </output>

    <time>
        <begin value="0"/>
    </time>

    <processing>
        <route-steps value="200"/>
        <no-internal-links value="false"/>
        <time-to-teleport value="300"/>
        <time-to-teleport.highways value="0"/>
        <eager-insert value="false"/>
    </processing>

    <report>
        <verbose value="true"/>
        <no-warnings value="false"/>
        <log value="1\iteration_001.sumo.log"/>
        <no-step-log value="true"/>
    </report>

    <random_number>
        <random value="false"/>
    </random_number>

</configuration>
-->

<tripinfos xmlns:xsi="http://www.w3.org/2001/XMLSchema-instance" xsi:noNamespaceSchemaLocation="http://sumo.dlr.de/xsd/tripinfo_file.xsd">
    <tripinfo id="veh2_2" depart="25.00" departLane="539383765#3_0" departPos="5.10" departSpeed="0.00" departDelay="0.00" arrival="55.00" arrivalLane="539383768#6_1" arrivalPos="45.63" arrivalSpeed="15.00" duration="30.00" routeLength="317.01" waitingTime="0.00" waitingCount="0" stopTime="0.00" timeLoss="9.09" rerouteNo="0" devices="tripinfo_veh2_2" vType="DEFAULT_VEHTYPE" speedFactor="1.05" vaporized=""/>
    <tripinfo id="veh9_3" depart="25.00" departLane="359244608#0_0" departPos="5.10" departSpeed="0.00" departDelay="0.00" arrival="55.00" arrivalLane="359244597#1_0" arrivalPos="33.77" arrivalSpeed="13.03" duration="30.00" routeLength="327.83" waitingTime="0.00" waitingCount="0" stopTime="0.00" timeLoss="5.88" rerouteNo="0" devices="tripinfo_veh9_3" vType="DEFAULT_VEHTYPE" speedFactor="1.02" vaporized=""/>
    <tripinfo id="veh0_3" depart="25.00" departLane="560361514#6_0" departPos="5.10" departSpeed="0.00" departDelay="0.00" arrival="58.00" arrivalLane="560361514#10_0" arrivalPos="202.28" arrivalSpeed="29.02" duration="33.00" routeLength="786.44" waitingTime="0.00" waitingCount="0" stopTime="0.00" timeLoss="6.49" rerouteNo="0" devices="tripinfo_veh0_3" vType="DEFAULT_VEHTYPE" speedFactor="1.08" vaporized=""/>
    <tripinfo id="veh3_1" depart="25.00" departLane="359247300#0_0" departPos="5.10" departSpeed="0.00" departDelay="0.00" arrival="58.00" arrivalLane="359247300#1_0" arrivalPos="219.61" arrivalSpeed="15.20" duration="33.00" routeLength="390.42" waitingTime="0.00" waitingCount="0" stopTime="0.00" timeLoss="7.94" rerouteNo="0" devices="tripinfo_veh3_1" vType="DEFAULT_VEHTYPE" speedFactor="1.16" vaporized=""/>
    <tripinfo id="veh3_5" depart="25.00" departLane="539383768#0_0" departPos="5.10" departSpeed="0.00" departDelay="0.00" arrival="62.00" arrivalLane="539383768#2_0" arrivalPos="239.65" arrivalSpeed="24.69" duration="37.00" routeLength="729.87" waitingTime="0.00" waitingCount="0" stopTime="0.00" timeLoss="7.01" rerouteNo="0" devices="tripinfo_veh3_5" vType="DEFAULT_VEHTYPE" speedFactor="0.89" vaporized=""/>
    <tripinfo id="veh7_3" depart="25.00" departLane="396051491#3_0" departPos="5.10" departSpeed="0.00" departDelay="0.00" arrival="68.00" arrivalLane="766136200_1" arrivalPos="53.47" arrivalSpeed="28.60" duration="43.00" routeLength="780.92" waitingTime="0.00" waitingCount="0" stopTime="0.00" timeLoss="15.48" rerouteNo="0" devices="tripinfo_veh7_3" vType="DEFAULT_VEHTYPE" speedFactor="1.04" vaporized=""/>
    <tripinfo id="veh1_2" depart="25.00" departLane="-675107653#5_0" departPos="5.10" departSpeed="0.00" departDelay="0.00" arrival="70.00" arrivalLane="562021790#0_1" arrivalPos="53.64" arrivalSpeed="25.44" duration="45.00" routeLength="493.46" waitingTime="0.00" waitingCount="0" stopTime="0.00" timeLoss="12.00" rerouteNo="0" devices="tripinfo_veh1_2" vType="DEFAULT_VEHTYPE" speedFactor="0.94" vaporized=""/>
    <tripinfo id="veh2_3" depart="25.00" departLane="539383768#6_0" departPos="5.10" departSpeed="0.00" departDelay="0.00" arrival="76.00" arrivalLane="539383762#7_0" arrivalPos="169.23" arrivalSpeed="14.81" duration="51.00" routeLength="662.31" waitingTime="0.00" waitingCount="0" stopTime="0.00" timeLoss="14.09" rerouteNo="0" devices="tripinfo_veh2_3" vType="DEFAULT_VEHTYPE" speedFactor="1.12" vaporized=""/>
    <tripinfo id="veh6_2" depart="25.00" departLane="359247813#2_0" departPos="5.10" departSpeed="0.00" departDelay="0.00" arrival="79.00" arrivalLane="562430406#8_0" arrivalPos="392.55" arrivalSpeed="15.74" duration="54.00" routeLength="700.52" waitingTime="0.00" waitingCount="0" stopTime="0.00" timeLoss="9.21" rerouteNo="0" devices="tripinfo_veh6_2" vType="DEFAULT_VEHTYPE" speedFactor="1.18" vaporized=""/>
    <tripinfo id="veh5_1" depart="25.00" departLane="781684931#0_0" departPos="5.10" departSpeed="0.00" departDelay="0.00" arrival="83.00" arrivalLane="-362985261#6_0" arrivalPos="61.07" arrivalSpeed="13.47" duration="58.00" routeLength="539.92" waitingTime="0.00" waitingCount="0" stopTime="0.00" timeLoss="17.47" rerouteNo="0" devices="tripinfo_veh5_1" vType="DEFAULT_VEHTYPE" speedFactor="1.01" vaporized=""/>
    <tripinfo id="veh4_2" depart="25.00" departLane="757450364#0_0" departPos="5.10" departSpeed="0.00" departDelay="0.00" arrival="90.00" arrivalLane="479199742#1_0" arrivalPos="409.63" arrivalSpeed="20.69" duration="65.00" routeLength="1125.80" waitingTime="0.00" waitingCount="0" stopTime="0.00" timeLoss="9.50" rerouteNo="0" devices="tripinfo_veh4_2" vType="DEFAULT_VEHTYPE" speedFactor="0.95" vaporized=""/>
    <tripinfo id="veh3_2" depart="25.00" departLane="359247300#1_0" departPos="5.10" departSpeed="0.00" departDelay="0.00" arrival="92.00" arrivalLane="154148014#2_0" arrivalPos="6.55" arrivalSpeed="22.24" duration="67.00" routeLength="786.02" waitingTime="0.00" waitingCount="0" stopTime="0.00" timeLoss="14.92" rerouteNo="0" devices="tripinfo_veh3_2" vType="DEFAULT_VEHTYPE" speedFactor="1.02" vaporized=""/>
    <tripinfo id="veh2_1" depart="25.00" departLane="754594908#4_0" departPos="5.10" departSpeed="0.00" departDelay="0.00" arrival="93.00" arrivalLane="539383765#3_0" arrivalPos="264.82" arrivalSpeed="13.05" duration="68.00" routeLength="830.55" waitingTime="0.00" waitingCount="0" stopTime="0.00" timeLoss="15.43" rerouteNo="0" devices="tripinfo_veh2_1" vType="DEFAULT_VEHTYPE" speedFactor="1.03" vaporized=""/>
    <tripinfo id="veh6_3" depart="28.00" departLane="562430406#8_0" departPos="5.10" departSpeed="0.00" departDelay="3.00" arrival="97.00" arrivalLane="398041366#1_0" arrivalPos="85.07" arrivalSpeed="14.01" duration="69.00" routeLength="933.06" waitingTime="0.00" waitingCount="0" stopTime="0.00" timeLoss="18.99" rerouteNo="0" devices="tripinfo_veh6_3" vType="DEFAULT_VEHTYPE" speedFactor="1.10" vaporized=""/>
    <tripinfo id="veh9_2" depart="25.00" departLane="233703186#0_0" departPos="5.10" departSpeed="0.00" departDelay="0.00" arrival="102.00" arrivalLane="359244608#0_0" arrivalPos="92.62" arrivalSpeed="15.11" duration="77.00" routeLength="852.19" waitingTime="0.00" waitingCount="0" stopTime="0.00" timeLoss="20.80" rerouteNo="0" devices="tripinfo_veh9_2" vType="DEFAULT_VEHTYPE" speedFactor="1.17" vaporized=""/>
    <tripinfo id="veh0_1" depart="25.00" departLane="562021794#1_0" departPos="5.10" departSpeed="0.00" departDelay="0.00" arrival="113.00" arrivalLane="-484446266#8_0" arrivalPos="248.85" arrivalSpeed="12.47" duration="88.00" routeLength="1560.88" waitingTime="0.00" waitingCount="0" stopTime="0.00" timeLoss="15.24" rerouteNo="0" devices="tripinfo_veh0_1" vType="DEFAULT_VEHTYPE" speedFactor="0.94" vaporized=""/>
    <tripinfo id="veh0_2" depart="25.00" departLane="-484446266#8_0" departPos="5.10" departSpeed="0.00" departDelay="0.00" arrival="113.00" arrivalLane="560361514#6_0" arrivalPos="442.89" arrivalSpeed="27.45" duration="88.00" routeLength="1239.05" waitingTime="0.00" waitingCount="0" stopTime="0.00" timeLoss="22.29" rerouteNo="0" devices="tripinfo_veh0_2" vType="DEFAULT_VEHTYPE" speedFactor="1.01" vaporized=""/>
    <tripinfo id="veh0_4" depart="25.00" departLane="560361514#10_0" departPos="5.10" departSpeed="0.00" departDelay="0.00" arrival="115.00" arrivalLane="563587627_0" arrivalPos="120.78" arrivalSpeed="13.21" duration="90.00" routeLength="1109.88" waitingTime="0.00" waitingCount="0" stopTime="0.00" timeLoss="19.33" rerouteNo="0" devices="tripinfo_veh0_4" vType="DEFAULT_VEHTYPE" speedFactor="1.03" vaporized=""/>
    <tripinfo id="veh1_0" depart="28.00" departLane="-359409608_0" departPos="5.10" departSpeed="0.00" departDelay="3.00" arrival="116.00" arrivalLane="154148013#6_0" arrivalPos="327.33" arrivalSpeed="27.95" duration="88.00" routeLength="1252.42" waitingTime="0.00" waitingCount="0" stopTime="0.00" timeLoss="25.69" rerouteNo="0" devices="tripinfo_veh1_0" vType="DEFAULT_VEHTYPE" speedFactor="1.05" vaporized=""/>
    <tripinfo id="veh3_4" depart="25.00" departLane="230291072_0" departPos="5.10" departSpeed="0.00" departDelay="0.00" arrival="118.00" arrivalLane="539383768#0_0" arrivalPos="201.66" arrivalSpeed="26.25" duration="93.00" routeLength="1010.36" waitingTime="0.00" waitingCount="0" stopTime="0.00" timeLoss="22.06" rerouteNo="0" devices="tripinfo_veh3_4" vType="DEFAULT_VEHTYPE" speedFactor="0.98" vaporized=""/>
    <tripinfo id="veh11_2" depart="25.00" departLane="676492822_0" departPos="5.10" departSpeed="0.00" departDelay="0.00" arrival="122.00" arrivalLane="562549612#1_0" arrivalPos="393.19" arrivalSpeed="12.50" duration="97.00" routeLength="1071.29" waitingTime="0.00" waitingCount="0" stopTime="0.00" timeLoss="17.36" rerouteNo="0" devices="tripinfo_veh11_2" vType="DEFAULT_VEHTYPE" speedFactor="0.97" vaporized=""/>
    <tripinfo id="veh1_1" depart="25.00" departLane="154148013#6_0" departPos="5.10" departSpeed="0.00" departDelay="0.00" arrival="126.00" arrivalLane="-675107653#5_0" arrivalPos="68.60" arrivalSpeed="11.16" duration="101.00" routeLength="1759.03" waitingTime="0.00" waitingCount="0" stopTime="0.00" timeLoss="17.23" rerouteNo="0" devices="tripinfo_veh1_1" vType="DEFAULT_VEHTYPE" speedFactor="0.89" vaporized=""/>
    <tripinfo id="veh7_2" depart="25.00" departLane="403676096#0_0" departPos="5.10" departSpeed="0.00" departDelay="0.00" arrival="127.00" arrivalLane="396051491#3_0" arrivalPos="141.12" arrivalSpeed="27.80" duration="102.00" routeLength="1673.78" waitingTime="0.00" waitingCount="0" stopTime="0.00" timeLoss="34.35" rerouteNo="0" devices="tripinfo_veh7_2" vType="DEFAULT_VEHTYPE" speedFactor="1.09" vaporized=""/>
    <tripinfo id="veh4_3" depart="25.00" departLane="479199742#1_0" departPos="5.10" departSpeed="0.00" departDelay="0.00" arrival="134.00" arrivalLane="729152092#2_0" arrivalPos="908.74" arrivalSpeed="23.91" duration="109.00" routeLength="2527.84" waitingTime="0.00" waitingCount="0" stopTime="0.00" timeLoss="8.25" rerouteNo="0" devices="tripinfo_veh4_3" vType="DEFAULT_VEHTYPE" speedFactor="1.13" vaporized=""/>
    <tripinfo id="veh2_7" depart="25.00" departLane="359408298#2_0" departPos="5.10" departSpeed="0.00" departDelay="0.00" arrival="135.00" arrivalLane="-359409608_0" arrivalPos="135.48" arrivalSpeed="12.05" duration="110.00" routeLength="1192.12" waitingTime="0.00" waitingCount="0" stopTime="0.00" timeLoss="23.91" rerouteNo="0" devices="tripinfo_veh2_7" vType="DEFAULT_VEHTYPE" speedFactor="0.94" vaporized=""/>
    <tripinfo id="veh5_2" depart="25.00" departLane="-362985261#6_0" departPos="5.10" departSpeed="0.00" departDelay="0.00" arrival="139.00" arrivalLane="362985258#0_0" arrivalPos="52.30" arrivalSpeed="15.57" duration="114.00" routeLength="1340.71" waitingTime="0.00" waitingCount="0" stopTime="0.00" timeLoss="27.29" rerouteNo="0" devices="tripinfo_veh5_2" vType="DEFAULT_VEHTYPE" speedFactor="1.17" vaporized=""/>
    <tripinfo id="veh11_1" depart="25.00" departLane="-563587585#0_0" departPos="5.10" departSpeed="0.00" departDelay="0.00" arrival="140.00" arrivalLane="676492822_0" arrivalPos="72.78" arrivalSpeed="8.05" duration="115.00" routeLength="1861.14" waitingTime="0.00" waitingCount="0" stopTime="0.00" timeLoss="21.93" rerouteNo="0" devices="tripinfo_veh11_1" vType="DEFAULT_VEHTYPE" speedFactor="1.02" vaporized=""/>
    <tripinfo id="veh0_0" depart="25.00" departLane="-359409608_0" departPos="5.10" departSpeed="0.00" departDelay="0.00" arrival="143.00" arrivalLane="562021794#1_0" arrivalPos="11.24" arrivalSpeed="16.60" duration="118.00" routeLength="1404.66" waitingTime="18.00" waitingCount="1" stopTime="0.00" timeLoss="51.78" rerouteNo="0" devices="tripinfo_veh0_0" vType="DEFAULT_VEHTYPE" speedFactor="1.06" vaporized=""/>
    <tripinfo id="veh3_3" depart="25.00" departLane="154148014#2_0" departPos="5.10" departSpeed="0.00" departDelay="0.00" arrival="145.00" arrivalLane="230291072_0" arrivalPos="179.75" arrivalSpeed="13.40" duration="120.00" routeLength="1479.25" waitingTime="0.00" waitingCount="0" stopTime="0.00" timeLoss="18.05" rerouteNo="0" devices="tripinfo_veh3_3" vType="DEFAULT_VEHTYPE" speedFactor="1.01" vaporized=""/>
    <tripinfo id="veh10_1" depart="25.00" departLane="362985244#7_0" departPos="5.10" departSpeed="0.00" departDelay="0.00" arrival="156.00" arrivalLane="358237489#0_0" arrivalPos="86.17" arrivalSpeed="13.56" duration="131.00" routeLength="2494.42" waitingTime="0.00" waitingCount="0" stopTime="0.00" timeLoss="22.47" rerouteNo="0" devices="tripinfo_veh10_1" vType="DEFAULT_VEHTYPE" speedFactor="1.00" vaporized=""/>
    <tripinfo id="veh9_1" depart="25.00" departLane="233703205#1_0" departPos="5.10" departSpeed="0.00" departDelay="0.00" arrival="160.00" arrivalLane="233703186#0_0" arrivalPos="230.12" arrivalSpeed="11.44" duration="135.00" routeLength="1281.30" waitingTime="0.00" waitingCount="0" stopTime="0.00" timeLoss="21.68" rerouteNo="0" devices="tripinfo_veh9_1" vType="DEFAULT_VEHTYPE" speedFactor="0.85" vaporized=""/>
    <tripinfo id="veh2_4" depart="25.00" departLane="539383762#7_0" departPos="5.10" departSpeed="0.00" departDelay="0.00" arrival="161.00" arrivalLane="539383767#1_0" arrivalPos="58.17" arrivalSpeed="13.39" duration="136.00" routeLength="904.36" waitingTime="57.00" waitingCount="2" stopTime="0.00" timeLoss="88.97" rerouteNo="0" devices="tripinfo_veh2_4" vType="DEFAULT_VEHTYPE" speedFactor="0.99" vaporized=""/>
    <tripinfo id="veh6_4" depart="25.00" departLane="398041366#1_0" departPos="5.10" departSpeed="0.00" departDelay="0.00" arrival="173.00" arrivalLane="-359409608_0" arrivalPos="135.48" arrivalSpeed="11.75" duration="148.00" routeLength="1695.34" waitingTime="7.00" waitingCount="1" stopTime="0.00" timeLoss="39.52" rerouteNo="0" devices="tripinfo_veh6_4" vType="DEFAULT_VEHTYPE" speedFactor="0.90" vaporized=""/>
    <tripinfo id="veh1_3" depart="25.00" departLane="562021790#0_0" departPos="5.10" departSpeed="0.00" departDelay="0.00" arrival="178.00" arrivalLane="-359409608_0" arrivalPos="135.48" arrivalSpeed="11.04" duration="153.00" routeLength="1663.61" waitingTime="30.00" waitingCount="1" stopTime="0.00" timeLoss="59.31" rerouteNo="0" devices="tripinfo_veh1_3" vType="DEFAULT_VEHTYPE" speedFactor="0.86" vaporized=""/>
    <tripinfo id="veh7_4" depart="25.00" departLane="766136200_0" departPos="5.10" departSpeed="0.00" departDelay="0.00" arrival="180.00" arrivalLane="-359409608_0" arrivalPos="135.48" arrivalSpeed="13.88" duration="155.00" routeLength="2377.68" waitingTime="8.00" waitingCount="1" stopTime="0.00" timeLoss="52.21" rerouteNo="0" devices="tripinfo_veh7_4" vType="DEFAULT_VEHTYPE" speedFactor="1.04" vaporized=""/>
    <tripinfo id="veh11_3" depart="25.00" departLane="562549612#1_0" departPos="5.10" departSpeed="0.00" departDelay="0.00" arrival="180.00" arrivalLane="359246993#0_0" arrivalPos="70.96" arrivalSpeed="14.33" duration="155.00" routeLength="2317.19" waitingTime="0.00" waitingCount="0" stopTime="0.00" timeLoss="44.03" rerouteNo="0" devices="tripinfo_veh11_3" vType="DEFAULT_VEHTYPE" speedFactor="1.08" vaporized=""/>
    <tripinfo id="veh2_6" depart="25.00" departLane="-359408277#0_0" departPos="5.10" departSpeed="0.00" departDelay="0.00" arrival="181.00" arrivalLane="359408298#2_0" arrivalPos="137.25" arrivalSpeed="11.60" duration="156.00" routeLength="2028.73" waitingTime="23.00" waitingCount="1" stopTime="0.00" timeLoss="49.23" rerouteNo="0" devices="tripinfo_veh2_6" vType="DEFAULT_VEHTYPE" speedFactor="0.88" vaporized=""/>
    <tripinfo id="veh2_5" depart="25.00" departLane="539383767#1_0" departPos="5.10" departSpeed="0.00" departDelay="0.00" arrival="186.00" arrivalLane="-359408277#0_0" arrivalPos="175.18" arrivalSpeed="11.62" duration="161.00" routeLength="2173.32" waitingTime="1.00" waitingCount="1" stopTime="0.00" timeLoss="38.35" rerouteNo="0" devices="tripinfo_veh2_5" vType="DEFAULT_VEHTYPE" speedFactor="0.93" vaporized=""/>
    <tripinfo id="veh7_1" depart="25.00" departLane="363002237#4_0" departPos="5.10" departSpeed="0.00" departDelay="0.00" arrival="186.00" arrivalLane="403676096#0_0" arrivalPos="281.18" arrivalSpeed="12.34" duration="161.00" routeLength="1941.70" waitingTime="0.00" waitingCount="0" stopTime="0.00" timeLoss="38.88" rerouteNo="0" devices="tripinfo_veh7_1" vType="DEFAULT_VEHTYPE" speedFactor="0.96" vaporized=""/>
    <tripinfo id="veh6_1" depart="25.00" departLane="562430406#8_0" departPos="5.10" departSpeed="0.00" departDelay="0.00" arrival="200.00" arrivalLane="359247813#2_0" arrivalPos="275.45" arrivalSpeed="13.25" duration="175.00" routeLength="1631.47" waitingTime="46.00" waitingCount="2" stopTime="0.00" timeLoss="78.64" rerouteNo="0" devices="tripinfo_veh6_1" vType="DEFAULT_VEHTYPE" speedFactor="0.97" vaporized=""/>
    <tripinfo id="veh4_5" depart="25.00" departLane="362347497#7_0" departPos="5.10" departSpeed="0.00" departDelay="0.00" arrival="216.00" arrivalLane="-359409608_0" arrivalPos="135.48" arrivalSpeed="16.30" duration="191.00" routeLength="2298.75" waitingTime="45.00" waitingCount="2" stopTime="0.00" timeLoss="99.46" rerouteNo="0" devices="tripinfo_veh4_5" vType="DEFAULT_VEHTYPE" speedFactor="1.18" vaporized=""/>
    <tripinfo id="veh8_1" depart="25.00" departLane="-363359023#5_0" departPos="5.10" departSpeed="0.00" departDelay="0.00" arrival="219.00" arrivalLane="363373882#0_0" arrivalPos="12.94" arrivalSpeed="13.12" duration="194.00" routeLength="3017.66" waitingTime="0.00" waitingCount="0" stopTime="0.00" timeLoss="34.93" rerouteNo="0" devices="tripinfo_veh8_1" vType="DEFAULT_VEHTYPE" speedFactor="1.00" vaporized=""/>
    <tripinfo id="veh4_1" depart="25.00" departLane="563175147#6_0" departPos="5.10" departSpeed="0.00" departDelay="0.00" arrival="220.00" arrivalLane="757450364#0_0" arrivalPos="86.62" arrivalSpeed="19.99" duration="195.00" routeLength="3228.59" waitingTime="0.00" waitingCount="0" stopTime="0.00" timeLoss="31.72" rerouteNo="0" devices="tripinfo_veh4_1" vType="DEFAULT_VEHTYPE" speedFactor="0.92" vaporized=""/>
    <tripinfo id="veh4_4" depart="25.00" departLane="729152092#2_0" departPos="5.10" departSpeed="0.00" departDelay="0.00" arrival="224.00" arrivalLane="362347497#7_0" arrivalPos="149.91" arrivalSpeed="19.67" duration="199.00" routeLength="3777.39" waitingTime="0.00" waitingCount="0" stopTime="0.00" timeLoss="15.53" rerouteNo="0" devices="tripinfo_veh4_4" vType="DEFAULT_VEHTYPE" speedFactor="0.93" vaporized=""/>
    <tripinfo id="veh2_0" depart="31.00" departLane="-359409608_0" departPos="5.10" departSpeed="0.00" departDelay="6.00" arrival="239.00" arrivalLane="754594908#4_0" arrivalPos="190.58" arrivalSpeed="30.06" duration="208.00" routeLength="2677.46" waitingTime="47.00" waitingCount="2" stopTime="0.00" timeLoss="98.78" rerouteNo="0" devices="tripinfo_veh2_0" vType="DEFAULT_VEHTYPE" speedFactor="1.09" vaporized=""/>
    <tripinfo id="veh3_0" depart="34.00" departLane="-359409608_0" departPos="5.10" departSpeed="0.00" departDelay="9.00" arrival="241.00" arrivalLane="359247300#0_0" arrivalPos="161.40" arrivalSpeed="12.67" duration="207.00" routeLength="3681.05" waitingTime="0.00" waitingCount="0" stopTime="0.00" timeLoss="37.14" rerouteNo="0" devices="tripinfo_veh3_0" vType="DEFAULT_VEHTYPE" speedFactor="0.94" vaporized=""/>
    <tripinfo id="veh11_4" depart="25.00" departLane="359246993#0_0" departPos="5.10" departSpeed="0.00" departDelay="0.00" arrival="251.00" arrivalLane="-359409608_0" arrivalPos="135.48" arrivalSpeed="15.25" duration="226.00" routeLength="3067.94" waitingTime="60.00" waitingCount="2" stopTime="0.00" timeLoss="104.25" rerouteNo="0" devices="tripinfo_veh11_4" vType="DEFAULT_VEHTYPE" speedFactor="1.12" vaporized=""/>
    <tripinfo id="veh8_3" depart="25.00" departLane="168328152#0_0" departPos="5.10" departSpeed="0.00" departDelay="0.00" arrival="273.00" arrivalLane="-359409608_0" arrivalPos="135.48" arrivalSpeed="11.19" duration="248.00" routeLength="3400.49" waitingTime="28.00" waitingCount="1" stopTime="0.00" timeLoss="76.80" rerouteNo="0" devices="tripinfo_veh8_3" vType="DEFAULT_VEHTYPE" speedFactor="0.88" vaporized=""/>
    <tripinfo id="veh9_0" depart="52.00" departLane="-359409608_0" departPos="5.10" departSpeed="0.00" departDelay="27.00" arrival="295.00" arrivalLane="233703205#1_0" arrivalPos="81.35" arrivalSpeed="10.88" duration="243.00" routeLength="3647.79" waitingTime="0.00" waitingCount="0" stopTime="0.00" timeLoss="43.38" rerouteNo="0" devices="tripinfo_veh9_0" vType="DEFAULT_VEHTYPE" speedFactor="0.85" vaporized=""/>
    <tripinfo id="veh8_2" depart="25.00" departLane="363373882#0_0" departPos="5.10" departSpeed="0.00" departDelay="0.00" arrival="303.00" arrivalLane="168328152#0_0" arrivalPos="48.55" arrivalSpeed="11.31" duration="278.00" routeLength="4823.47" waitingTime="0.00" waitingCount="0" stopTime="0.00" timeLoss="37.15" rerouteNo="0" devices="tripinfo_veh8_2" vType="DEFAULT_VEHTYPE" speedFactor="0.90" vaporized=""/>
    <tripinfo id="veh7_0" depart="46.00" departLane="-359409608_0" departPos="5.10" departSpeed="0.00" departDelay="21.00" arrival="313.00" arrivalLane="363002237#4_0" arrivalPos="45.42" arrivalSpeed="13.05" duration="267.00" routeLength="4159.27" waitingTime="35.00" waitingCount="2" stopTime="0.00" timeLoss="93.05" rerouteNo="0" devices="tripinfo_veh7_0" vType="DEFAULT_VEHTYPE" speedFactor="1.03" vaporized=""/>
    <tripinfo id="veh11_0" depart="58.00" departLane="-359409608_0" departPos="5.10" departSpeed="0.00" departDelay="33.00" arrival="344.00" arrivalLane="-563587585#0_0" arrivalPos="28.41" arrivalSpeed="13.76" duration="286.00" routeLength="5168.47" waitingTime="0.00" waitingCount="0" stopTime="0.00" timeLoss="81.26" rerouteNo="0" devices="tripinfo_veh11_0" vType="DEFAULT_VEHTYPE" speedFactor="1.14" vaporized=""/>
    <tripinfo id="veh3_6" depart="25.00" departLane="539383768#2_0" departPos="5.10" departSpeed="0.00" departDelay="0.00" arrival="356.00" arrivalLane="-359409608_0" arrivalPos="135.48" arrivalSpeed="11.35" duration="331.00" routeLength="3120.88" waitingTime="78.00" waitingCount="2" stopTime="0.00" timeLoss="128.02" rerouteNo="0" devices="tripinfo_veh3_6" vType="DEFAULT_VEHTYPE" speedFactor="0.83" vaporized=""/>
    <tripinfo id="veh9_4" depart="25.00" departLane="359244597#1_0" departPos="5.10" departSpeed="0.00" departDelay="0.00" arrival="358.00" arrivalLane="-359409608_0" arrivalPos="135.48" arrivalSpeed="14.70" duration="333.00" routeLength="3928.50" waitingTime="77.00" waitingCount="2" stopTime="0.00" timeLoss="147.98" rerouteNo="0" devices="tripinfo_veh9_4" vType="DEFAULT_VEHTYPE" speedFactor="1.10" vaporized=""/>
    <tripinfo id="veh0_5" depart="25.00" departLane="563587627_0" departPos="5.10" departSpeed="0.00" departDelay="0.00" arrival="363.00" arrivalLane="-359409608_0" arrivalPos="135.48" arrivalSpeed="10.67" duration="338.00" routeLength="4161.59" waitingTime="36.00" waitingCount="1" stopTime="0.00" timeLoss="88.46" rerouteNo="0" devices="tripinfo_veh0_5" vType="DEFAULT_VEHTYPE" speedFactor="0.83" vaporized=""/>
    <tripinfo id="veh10_2" depart="25.00" departLane="358237489#0_0" departPos="5.10" departSpeed="0.00" departDelay="0.00" arrival="366.00" arrivalLane="-359409608_0" arrivalPos="135.48" arrivalSpeed="11.92" duration="341.00" routeLength="5341.20" waitingTime="17.00" waitingCount="1" stopTime="0.00" timeLoss="74.77" rerouteNo="0" devices="tripinfo_veh10_2" vType="DEFAULT_VEHTYPE" speedFactor="0.90" vaporized=""/>
    <tripinfo id="veh5_3" depart="25.00" departLane="362985258#0_0" departPos="5.10" departSpeed="0.00" departDelay="0.00" arrival="370.00" arrivalLane="-359409608_0" arrivalPos="135.48" arrivalSpeed="12.65" duration="345.00" routeLength="5223.23" waitingTime="44.00" waitingCount="1" stopTime="0.00" timeLoss="106.95" rerouteNo="0" devices="tripinfo_veh5_3" vType="DEFAULT_VEHTYPE" speedFactor="0.99" vaporized=""/>
    <tripinfo id="veh8_0" depart="49.00" departLane="-359409608_0" departPos="5.10" departSpeed="0.00" departDelay="24.00" arrival="389.00" arrivalLane="-363359023#5_0" arrivalPos="55.81" arrivalSpeed="14.65" duration="340.00" routeLength="5363.79" waitingTime="35.00" waitingCount="1" stopTime="0.00" timeLoss="118.76" rerouteNo="0" devices="tripinfo_veh8_0" vType="DEFAULT_VEHTYPE" speedFactor="1.09" vaporized=""/>
    <tripinfo id="veh4_0" depart="37.00" departLane="-359409608_0" departPos="5.10" departSpeed="0.00" departDelay="12.00" arrival="396.00" arrivalLane="563175147#6_0" arrivalPos="123.61" arrivalSpeed="19.31" duration="359.00" routeLength="2803.54" waitingTime="162.00" waitingCount="4" stopTime="0.00" timeLoss="213.73" rerouteNo="0" devices="tripinfo_veh4_0" vType="DEFAULT_VEHTYPE" speedFactor="0.87" vaporized=""/>
    <tripinfo id="veh5_0" depart="40.00" departLane="-359409608_0" departPos="5.10" departSpeed="0.00" departDelay="15.00" arrival="431.00" arrivalLane="781684931#0_0" arrivalPos="57.29" arrivalSpeed="14.85" duration="391.00" routeLength="7573.30" waitingTime="48.00" waitingCount="2" stopTime="0.00" timeLoss="131.36" rerouteNo="0" devices="tripinfo_veh5_0" vType="DEFAULT_VEHTYPE" speedFactor="1.15" vaporized=""/>
    <tripinfo id="veh6_0" depart="43.00" departLane="-359409608_0" departPos="5.10" departSpeed="0.00" departDelay="18.00" arrival="435.00" arrivalLane="562430406#8_0" arrivalPos="392.55" arrivalSpeed="13.55" duration="392.00" routeLength="2278.29" waitingTime="196.00" waitingCount="5" stopTime="0.00" timeLoss="262.22" rerouteNo="0" devices="tripinfo_veh6_0" vType="DEFAULT_VEHTYPE" speedFactor="1.02" vaporized=""/>
    <tripinfo id="veh10_0" depart="55.00" departLane="-359409608_0" departPos="5.10" departSpeed="0.00" departDelay="30.00" arrival="466.00" arrivalLane="362985244#7_0" arrivalPos="27.72" arrivalSpeed="13.30" duration="411.00" routeLength="7646.78" waitingTime="21.00" waitingCount="1" stopTime="0.00" timeLoss="105.86" rerouteNo="0" devices="tripinfo_veh10_0" vType="DEFAULT_VEHTYPE" speedFactor="1.00" vaporized=""/>
</tripinfos>
