<?xml version="1.0" encoding="UTF-8"?>

<!-- generated on 06/05/21 09:06:41 by Eclipse SUMO sumo Version 1.8.0
<configuration xmlns:xsi="http://www.w3.org/2001/XMLSchema-instance" xsi:noNamespaceSchemaLocation="http://sumo.dlr.de/xsd/sumoConfiguration.xsd">

    <input>
        <net-file value="0\../BSD.net.xml"/>
        <route-files value="0\bsd_000.rou.xml"/>
        <additional-files value="0\dua_dump_000.add.xml"/>
    </input>

    <output>
        <summary-output value="0\summary_000.xml"/>
        <tripinfo-output value="0\tripinfo_000.xml"/>
    </output>

    <time>
        <begin value="0"/>
    </time>

    <processing>
        <route-steps value="200"/>
        <no-internal-links value="false"/>
        <time-to-teleport value="300"/>
        <time-to-teleport.highways value="0"/>
        <eager-insert value="false"/>
    </processing>

    <report>
        <verbose value="true"/>
        <no-warnings value="false"/>
        <log value="0\iteration_000.sumo.log"/>
        <no-step-log value="true"/>
    </report>

    <random_number>
        <random value="false"/>
    </random_number>

</configuration>
-->

<tripinfos xmlns:xsi="http://www.w3.org/2001/XMLSchema-instance" xsi:noNamespaceSchemaLocation="http://sumo.dlr.de/xsd/tripinfo_file.xsd">
    <tripinfo id="veh1_2" depart="25.00" departLane="359246993#0_0" departPos="5.10" departSpeed="0.00" departDelay="0.00" arrival="54.00" arrivalLane="560361514#10_1" arrivalPos="202.28" arrivalSpeed="22.97" duration="29.00" routeLength="344.96" waitingTime="0.00" waitingCount="0" stopTime="0.00" timeLoss="8.90" rerouteNo="0" devices="tripinfo_veh1_2" vType="DEFAULT_VEHTYPE" speedFactor="0.86" vaporized=""/>
    <tripinfo id="veh4_3" depart="25.00" departLane="539383765#3_0" departPos="5.10" departSpeed="0.00" departDelay="0.00" arrival="56.00" arrivalLane="539383768#6_1" arrivalPos="45.63" arrivalSpeed="13.57" duration="31.00" routeLength="317.01" waitingTime="0.00" waitingCount="0" stopTime="0.00" timeLoss="7.64" rerouteNo="0" devices="tripinfo_veh4_3" vType="DEFAULT_VEHTYPE" speedFactor="0.95" vaporized=""/>
    <tripinfo id="veh1_3" depart="25.00" departLane="560361514#10_0" departPos="5.10" departSpeed="0.00" departDelay="0.00" arrival="57.00" arrivalLane="359247300#0_0" arrivalPos="161.40" arrivalSpeed="13.91" duration="32.00" routeLength="458.92" waitingTime="0.00" waitingCount="0" stopTime="0.00" timeLoss="10.01" rerouteNo="0" devices="tripinfo_veh1_3" vType="DEFAULT_VEHTYPE" speedFactor="1.09" vaporized=""/>
    <tripinfo id="veh5_6" depart="25.00" departLane="539383768#0_0" departPos="5.10" departSpeed="0.00" departDelay="0.00" arrival="57.00" arrivalLane="539383768#2_0" arrivalPos="239.65" arrivalSpeed="32.69" duration="32.00" routeLength="729.87" waitingTime="0.00" waitingCount="0" stopTime="0.00" timeLoss="8.85" rerouteNo="0" devices="tripinfo_veh5_6" vType="DEFAULT_VEHTYPE" speedFactor="1.18" vaporized=""/>
    <tripinfo id="veh1_4" depart="25.00" departLane="359247300#0_0" departPos="5.10" departSpeed="0.00" departDelay="0.00" arrival="59.00" arrivalLane="359247300#1_0" arrivalPos="219.61" arrivalSpeed="13.28" duration="34.00" routeLength="390.42" waitingTime="0.00" waitingCount="0" stopTime="0.00" timeLoss="6.08" rerouteNo="0" devices="tripinfo_veh1_4" vType="DEFAULT_VEHTYPE" speedFactor="1.03" vaporized=""/>
    <tripinfo id="veh0_5" depart="25.00" departLane="562430406#8_0" departPos="5.10" departSpeed="0.00" departDelay="0.00" arrival="63.00" arrivalLane="562430406#8_0" arrivalPos="392.55" arrivalSpeed="11.28" duration="38.00" routeLength="387.45" waitingTime="0.00" waitingCount="0" stopTime="0.00" timeLoss="3.72" rerouteNo="0" devices="tripinfo_veh0_5" vType="DEFAULT_VEHTYPE" speedFactor="0.83" vaporized=""/>
    <tripinfo id="veh5_2" depart="25.00" departLane="359244597#1_0" departPos="5.10" departSpeed="0.00" departDelay="0.00" arrival="68.00" arrivalLane="359244608#0_0" arrivalPos="92.62" arrivalSpeed="15.33" duration="43.00" routeLength="458.36" waitingTime="0.00" waitingCount="0" stopTime="0.00" timeLoss="12.52" rerouteNo="0" devices="tripinfo_veh5_2" vType="DEFAULT_VEHTYPE" speedFactor="1.17" vaporized=""/>
    <tripinfo id="veh6_6" depart="25.00" departLane="396051491#3_0" departPos="5.10" departSpeed="0.00" departDelay="0.00" arrival="69.00" arrivalLane="766136200_1" arrivalPos="53.47" arrivalSpeed="27.09" duration="44.00" routeLength="780.92" waitingTime="0.00" waitingCount="0" stopTime="0.00" timeLoss="14.54" rerouteNo="0" devices="tripinfo_veh6_6" vType="DEFAULT_VEHTYPE" speedFactor="1.00" vaporized=""/>
    <tripinfo id="veh7_1" depart="25.00" departLane="-362985261#6_0" departPos="5.10" departSpeed="0.00" departDelay="0.00" arrival="78.00" arrivalLane="362985244#7_0" arrivalPos="27.72" arrivalSpeed="11.22" duration="53.00" routeLength="475.60" waitingTime="0.00" waitingCount="0" stopTime="0.00" timeLoss="11.88" rerouteNo="0" devices="tripinfo_veh7_1" vType="DEFAULT_VEHTYPE" speedFactor="0.85" vaporized=""/>
    <tripinfo id="veh1_5" depart="25.00" departLane="359247300#1_0" departPos="5.10" departSpeed="0.00" departDelay="0.00" arrival="83.00" arrivalLane="563587627_0" arrivalPos="120.78" arrivalSpeed="14.36" duration="58.00" routeLength="631.35" waitingTime="0.00" waitingCount="0" stopTime="0.00" timeLoss="12.31" rerouteNo="0" devices="tripinfo_veh1_5" vType="DEFAULT_VEHTYPE" speedFactor="1.05" vaporized=""/>
    <tripinfo id="veh6_4" depart="25.00" departLane="403676096#0_0" departPos="5.10" departSpeed="0.00" departDelay="0.00" arrival="83.00" arrivalLane="168328152#0_0" arrivalPos="48.55" arrivalSpeed="14.37" duration="58.00" routeLength="786.76" waitingTime="0.00" waitingCount="0" stopTime="0.00" timeLoss="16.14" rerouteNo="0" devices="tripinfo_veh6_4" vType="DEFAULT_VEHTYPE" speedFactor="1.04" vaporized=""/>
    <tripinfo id="veh0_3" depart="25.00" departLane="562021794#1_0" departPos="5.10" departSpeed="0.00" departDelay="0.00" arrival="85.00" arrivalLane="359247813#2_0" arrivalPos="275.45" arrivalSpeed="14.31" duration="60.00" routeLength="839.37" waitingTime="0.00" waitingCount="0" stopTime="0.00" timeLoss="15.81" rerouteNo="0" devices="tripinfo_veh0_3" vType="DEFAULT_VEHTYPE" speedFactor="1.08" vaporized=""/>
    <tripinfo id="veh0_4" depart="25.00" departLane="359247813#2_0" departPos="5.10" departSpeed="0.00" departDelay="0.00" arrival="85.00" arrivalLane="562430406#8_0" arrivalPos="392.55" arrivalSpeed="13.65" duration="60.00" routeLength="700.52" waitingTime="0.00" waitingCount="0" stopTime="0.00" timeLoss="9.48" rerouteNo="0" devices="tripinfo_veh0_4" vType="DEFAULT_VEHTYPE" speedFactor="1.03" vaporized=""/>
    <tripinfo id="veh8_1" depart="25.00" departLane="757450364#0_0" departPos="5.10" departSpeed="0.00" departDelay="0.00" arrival="88.00" arrivalLane="479199742#1_0" arrivalPos="409.63" arrivalSpeed="22.05" duration="63.00" routeLength="1125.80" waitingTime="0.00" waitingCount="0" stopTime="0.00" timeLoss="10.09" rerouteNo="0" devices="tripinfo_veh8_1" vType="DEFAULT_VEHTYPE" speedFactor="1.00" vaporized=""/>
    <tripinfo id="veh2_4" depart="25.00" departLane="154148014#2_0" departPos="5.10" departSpeed="0.00" departDelay="0.00" arrival="90.00" arrivalLane="562021790#0_0" arrivalPos="53.64" arrivalSpeed="25.49" duration="65.00" routeLength="1472.06" waitingTime="0.00" waitingCount="0" stopTime="0.00" timeLoss="8.04" rerouteNo="0" devices="tripinfo_veh2_4" vType="DEFAULT_VEHTYPE" speedFactor="0.94" vaporized=""/>
    <tripinfo id="veh1_1" depart="25.00" departLane="560361514#6_0" departPos="5.10" departSpeed="0.00" departDelay="0.00" arrival="96.00" arrivalLane="359246993#0_0" arrivalPos="70.96" arrivalSpeed="11.82" duration="71.00" routeLength="890.89" waitingTime="0.00" waitingCount="0" stopTime="0.00" timeLoss="17.95" rerouteNo="0" devices="tripinfo_veh1_1" vType="DEFAULT_VEHTYPE" speedFactor="0.94" vaporized=""/>
    <tripinfo id="veh6_5" depart="25.00" departLane="168328152#0_0" departPos="5.10" departSpeed="0.00" departDelay="0.00" arrival="96.00" arrivalLane="396051491#3_0" arrivalPos="141.12" arrivalSpeed="26.53" duration="71.00" routeLength="1038.82" waitingTime="0.00" waitingCount="0" stopTime="0.00" timeLoss="32.20" rerouteNo="0" devices="tripinfo_veh6_5" vType="DEFAULT_VEHTYPE" speedFactor="1.09" vaporized=""/>
    <tripinfo id="veh3_2" depart="25.00" departLane="359408298#2_0" departPos="5.10" departSpeed="0.00" departDelay="0.00" arrival="97.00" arrivalLane="154148013#6_0" arrivalPos="327.33" arrivalSpeed="26.09" duration="72.00" routeLength="903.88" waitingTime="0.00" waitingCount="0" stopTime="0.00" timeLoss="18.94" rerouteNo="0" devices="tripinfo_veh3_2" vType="DEFAULT_VEHTYPE" speedFactor="0.98" vaporized=""/>
    <tripinfo id="veh4_2" depart="25.00" departLane="754594908#4_0" departPos="5.10" departSpeed="0.00" departDelay="0.00" arrival="98.00" arrivalLane="539383765#3_0" arrivalPos="264.82" arrivalSpeed="12.65" duration="73.00" routeLength="830.55" waitingTime="0.00" waitingCount="0" stopTime="0.00" timeLoss="14.80" rerouteNo="0" devices="tripinfo_veh4_2" vType="DEFAULT_VEHTYPE" speedFactor="0.92" vaporized=""/>
    <tripinfo id="veh5_7" depart="25.00" departLane="539383768#2_0" departPos="5.10" departSpeed="0.00" departDelay="0.00" arrival="104.00" arrivalLane="539383762#7_0" arrivalPos="169.23" arrivalSpeed="15.26" duration="79.00" routeLength="1452.97" waitingTime="0.00" waitingCount="0" stopTime="0.00" timeLoss="15.65" rerouteNo="0" devices="tripinfo_veh5_7" vType="DEFAULT_VEHTYPE" speedFactor="1.10" vaporized=""/>
    <tripinfo id="veh0_1" depart="25.00" departLane="-484446266#8_0" departPos="5.10" departSpeed="0.00" departDelay="0.00" arrival="105.00" arrivalLane="-675107653#5_0" arrivalPos="68.60" arrivalSpeed="12.17" duration="80.00" routeLength="852.46" waitingTime="0.00" waitingCount="0" stopTime="0.00" timeLoss="16.89" rerouteNo="0" devices="tripinfo_veh0_1" vType="DEFAULT_VEHTYPE" speedFactor="0.94" vaporized=""/>
    <tripinfo id="veh5_1" depart="25.00" departLane="233703205#1_0" departPos="5.10" departSpeed="0.00" departDelay="0.00" arrival="112.00" arrivalLane="359244597#1_0" arrivalPos="33.77" arrivalSpeed="13.09" duration="87.00" routeLength="946.93" waitingTime="0.00" waitingCount="0" stopTime="0.00" timeLoss="17.20" rerouteNo="0" devices="tripinfo_veh5_1" vType="DEFAULT_VEHTYPE" speedFactor="1.01" vaporized=""/>
    <tripinfo id="veh5_5" depart="25.00" departLane="230291072_0" departPos="5.10" departSpeed="0.00" departDelay="0.00" arrival="119.00" arrivalLane="539383768#0_0" arrivalPos="201.66" arrivalSpeed="26.73" duration="94.00" routeLength="1010.36" waitingTime="0.00" waitingCount="0" stopTime="0.00" timeLoss="21.96" rerouteNo="0" devices="tripinfo_veh5_5" vType="DEFAULT_VEHTYPE" speedFactor="0.97" vaporized=""/>
    <tripinfo id="veh2_1" depart="25.00" departLane="676492822_0" departPos="5.10" departSpeed="0.00" departDelay="0.00" arrival="123.00" arrivalLane="-563587585#0_0" arrivalPos="28.41" arrivalSpeed="12.28" duration="98.00" routeLength="1730.54" waitingTime="0.00" waitingCount="0" stopTime="0.00" timeLoss="16.90" rerouteNo="0" devices="tripinfo_veh2_1" vType="DEFAULT_VEHTYPE" speedFactor="0.93" vaporized=""/>
    <tripinfo id="veh2_3" depart="25.00" departLane="562549612#1_0" departPos="5.10" departSpeed="0.00" departDelay="0.00" arrival="124.00" arrivalLane="154148014#2_0" arrivalPos="6.55" arrivalSpeed="22.61" duration="99.00" routeLength="1569.75" waitingTime="0.00" waitingCount="0" stopTime="0.00" timeLoss="20.48" rerouteNo="0" devices="tripinfo_veh2_3" vType="DEFAULT_VEHTYPE" speedFactor="0.94" vaporized=""/>
    <tripinfo id="veh7_4" depart="25.00" departLane="781684931#0_0" departPos="5.10" departSpeed="0.00" departDelay="0.00" arrival="127.00" arrivalLane="362985258#0_0" arrivalPos="52.30" arrivalSpeed="12.97" duration="102.00" routeLength="1225.65" waitingTime="0.00" waitingCount="0" stopTime="0.00" timeLoss="13.24" rerouteNo="0" devices="tripinfo_veh7_4" vType="DEFAULT_VEHTYPE" speedFactor="1.02" vaporized=""/>
    <tripinfo id="veh6_2" depart="25.00" departLane="-363359023#5_0" departPos="5.10" departSpeed="0.00" departDelay="0.00" arrival="136.00" arrivalLane="363002237#4_0" arrivalPos="45.42" arrivalSpeed="14.46" duration="111.00" routeLength="1620.37" waitingTime="0.00" waitingCount="0" stopTime="0.00" timeLoss="28.43" rerouteNo="0" devices="tripinfo_veh6_2" vType="DEFAULT_VEHTYPE" speedFactor="1.09" vaporized=""/>
    <tripinfo id="veh7_3" depart="25.00" departLane="358237489#0_0" departPos="5.10" departSpeed="0.00" departDelay="0.00" arrival="138.00" arrivalLane="781684931#0_0" arrivalPos="57.29" arrivalSpeed="15.95" duration="113.00" routeLength="2361.48" waitingTime="0.00" waitingCount="0" stopTime="0.00" timeLoss="29.32" rerouteNo="0" devices="tripinfo_veh7_3" vType="DEFAULT_VEHTYPE" speedFactor="1.17" vaporized=""/>
    <tripinfo id="veh5_4" depart="25.00" departLane="233703186#0_0" departPos="5.10" departSpeed="0.00" departDelay="0.00" arrival="139.00" arrivalLane="230291072_0" arrivalPos="179.75" arrivalSpeed="13.29" duration="114.00" routeLength="1141.13" waitingTime="4.00" waitingCount="1" stopTime="0.00" timeLoss="28.54" rerouteNo="0" devices="tripinfo_veh5_4" vType="DEFAULT_VEHTYPE" speedFactor="1.02" vaporized=""/>
    <tripinfo id="veh5_3" depart="25.00" departLane="359244608#0_0" departPos="5.10" departSpeed="0.00" departDelay="0.00" arrival="149.00" arrivalLane="233703186#0_0" arrivalPos="230.12" arrivalSpeed="13.62" duration="124.00" routeLength="1200.82" waitingTime="0.00" waitingCount="0" stopTime="0.00" timeLoss="30.25" rerouteNo="0" devices="tripinfo_veh5_3" vType="DEFAULT_VEHTYPE" speedFactor="0.99" vaporized=""/>
    <tripinfo id="veh4_5" depart="25.00" departLane="539383767#1_0" departPos="5.10" departSpeed="0.00" departDelay="0.00" arrival="156.00" arrivalLane="398041366#1_0" arrivalPos="85.07" arrivalSpeed="12.03" duration="131.00" routeLength="1165.13" waitingTime="24.00" waitingCount="1" stopTime="0.00" timeLoss="50.17" rerouteNo="0" devices="tripinfo_veh4_5" vType="DEFAULT_VEHTYPE" speedFactor="0.93" vaporized=""/>
    <tripinfo id="veh4_1" depart="25.00" departLane="563175147#6_0" departPos="5.10" departSpeed="0.00" departDelay="0.00" arrival="160.00" arrivalLane="754594908#4_0" arrivalPos="190.58" arrivalSpeed="23.46" duration="135.00" routeLength="1288.11" waitingTime="44.00" waitingCount="2" stopTime="0.00" timeLoss="70.50" rerouteNo="0" devices="tripinfo_veh4_1" vType="DEFAULT_VEHTYPE" speedFactor="0.87" vaporized=""/>
    <tripinfo id="veh2_5" depart="25.00" departLane="562021790#0_0" departPos="5.10" departSpeed="0.00" departDelay="0.00" arrival="161.00" arrivalLane="-359409608_0" arrivalPos="135.48" arrivalSpeed="15.33" duration="136.00" routeLength="1663.61" waitingTime="34.00" waitingCount="1" stopTime="0.00" timeLoss="66.50" rerouteNo="0" devices="tripinfo_veh2_5" vType="DEFAULT_VEHTYPE" speedFactor="1.16" vaporized=""/>
    <tripinfo id="veh8_2" depart="25.00" departLane="479199742#1_0" departPos="5.10" departSpeed="0.00" departDelay="0.00" arrival="161.00" arrivalLane="729152092#2_0" arrivalPos="908.74" arrivalSpeed="19.66" duration="136.00" routeLength="2527.84" waitingTime="0.00" waitingCount="0" stopTime="0.00" timeLoss="8.60" rerouteNo="0" devices="tripinfo_veh8_2" vType="DEFAULT_VEHTYPE" speedFactor="0.90" vaporized=""/>
    <tripinfo id="veh4_4" depart="25.00" departLane="539383768#6_0" departPos="5.10" departSpeed="0.00" departDelay="0.00" arrival="163.00" arrivalLane="539383767#1_0" arrivalPos="58.17" arrivalSpeed="14.70" duration="138.00" routeLength="925.71" waitingTime="71.00" waitingCount="4" stopTime="0.00" timeLoss="103.34" rerouteNo="0" devices="tripinfo_veh4_4" vType="DEFAULT_VEHTYPE" speedFactor="1.13" vaporized=""/>
    <tripinfo id="veh4_6" depart="25.00" departLane="398041366#1_0" departPos="5.10" departSpeed="0.00" departDelay="0.00" arrival="163.00" arrivalLane="-359409608_0" arrivalPos="135.48" arrivalSpeed="15.60" duration="138.00" routeLength="1695.34" waitingTime="16.00" waitingCount="1" stopTime="0.00" timeLoss="54.65" rerouteNo="0" devices="tripinfo_veh4_6" vType="DEFAULT_VEHTYPE" speedFactor="1.18" vaporized=""/>
    <tripinfo id="veh7_2" depart="25.00" departLane="362985244#7_0" departPos="5.10" departSpeed="0.00" departDelay="0.00" arrival="173.00" arrivalLane="358237489#0_0" arrivalPos="86.17" arrivalSpeed="11.58" duration="148.00" routeLength="2494.42" waitingTime="0.00" waitingCount="0" stopTime="0.00" timeLoss="22.75" rerouteNo="0" devices="tripinfo_veh7_2" vType="DEFAULT_VEHTYPE" speedFactor="0.85" vaporized=""/>
    <tripinfo id="veh3_1" depart="25.00" departLane="-359408277#0_0" departPos="5.10" departSpeed="0.00" departDelay="0.00" arrival="177.00" arrivalLane="359408298#2_0" arrivalPos="137.25" arrivalSpeed="13.03" duration="152.00" routeLength="2028.73" waitingTime="30.00" waitingCount="1" stopTime="0.00" timeLoss="59.24" rerouteNo="0" devices="tripinfo_veh3_1" vType="DEFAULT_VEHTYPE" speedFactor="1.01" vaporized=""/>
    <tripinfo id="veh3_3" depart="25.00" departLane="154148013#6_0" departPos="5.10" departSpeed="0.00" departDelay="0.00" arrival="177.00" arrivalLane="-359409608_0" arrivalPos="135.48" arrivalSpeed="11.92" duration="152.00" routeLength="1539.72" waitingTime="34.00" waitingCount="1" stopTime="0.00" timeLoss="64.88" rerouteNo="0" devices="tripinfo_veh3_3" vType="DEFAULT_VEHTYPE" speedFactor="0.89" vaporized=""/>
    <tripinfo id="veh6_3" depart="25.00" departLane="363002237#4_0" departPos="5.10" departSpeed="0.00" departDelay="0.00" arrival="179.00" arrivalLane="403676096#0_0" arrivalPos="281.18" arrivalSpeed="14.22" duration="154.00" routeLength="1941.70" waitingTime="0.00" waitingCount="0" stopTime="0.00" timeLoss="39.56" rerouteNo="0" devices="tripinfo_veh6_3" vType="DEFAULT_VEHTYPE" speedFactor="1.04" vaporized=""/>
    <tripinfo id="veh6_7" depart="25.00" departLane="766136200_0" departPos="5.10" departSpeed="0.00" departDelay="0.00" arrival="181.00" arrivalLane="-359409608_0" arrivalPos="135.48" arrivalSpeed="11.73" duration="156.00" routeLength="2377.68" waitingTime="2.00" waitingCount="1" stopTime="0.00" timeLoss="36.35" rerouteNo="0" devices="tripinfo_veh6_7" vType="DEFAULT_VEHTYPE" speedFactor="0.90" vaporized=""/>
    <tripinfo id="veh8_3" depart="25.00" departLane="729152092#2_0" departPos="5.10" departSpeed="0.00" departDelay="0.00" arrival="189.00" arrivalLane="362347497#7_0" arrivalPos="149.91" arrivalSpeed="25.04" duration="164.00" routeLength="3777.39" waitingTime="0.00" waitingCount="0" stopTime="0.00" timeLoss="14.98" rerouteNo="0" devices="tripinfo_veh8_3" vType="DEFAULT_VEHTYPE" speedFactor="1.14" vaporized=""/>
    <tripinfo id="veh2_2" depart="25.00" departLane="-563587585#0_0" departPos="5.10" departSpeed="0.00" departDelay="0.00" arrival="204.00" arrivalLane="562549612#1_0" arrivalPos="393.19" arrivalSpeed="11.08" duration="179.00" routeLength="2587.36" waitingTime="0.00" waitingCount="0" stopTime="0.00" timeLoss="25.97" rerouteNo="0" devices="tripinfo_veh2_2" vType="DEFAULT_VEHTYPE" speedFactor="0.88" vaporized=""/>
    <tripinfo id="veh1_0" depart="28.00" departLane="-359409608_0" departPos="5.10" departSpeed="0.00" departDelay="3.00" arrival="214.00" arrivalLane="560361514#6_0" arrivalPos="442.89" arrivalSpeed="24.14" duration="186.00" routeLength="3070.66" waitingTime="3.00" waitingCount="1" stopTime="0.00" timeLoss="38.91" rerouteNo="0" devices="tripinfo_veh1_0" vType="DEFAULT_VEHTYPE" speedFactor="0.89" vaporized=""/>
    <tripinfo id="veh3_0" depart="34.00" departLane="-359409608_0" departPos="5.10" departSpeed="0.00" departDelay="9.00" arrival="214.00" arrivalLane="-359408277#0_0" arrivalPos="175.18" arrivalSpeed="12.99" duration="180.00" routeLength="2191.66" waitingTime="0.00" waitingCount="0" stopTime="0.00" timeLoss="30.05" rerouteNo="0" devices="tripinfo_veh3_0" vType="DEFAULT_VEHTYPE" speedFactor="1.02" vaporized=""/>
    <tripinfo id="veh8_4" depart="25.00" departLane="362347497#7_0" departPos="5.10" departSpeed="0.00" departDelay="0.00" arrival="217.00" arrivalLane="-359409608_0" arrivalPos="135.48" arrivalSpeed="13.70" duration="192.00" routeLength="2298.75" waitingTime="43.00" waitingCount="2" stopTime="0.00" timeLoss="87.33" rerouteNo="0" devices="tripinfo_veh8_4" vType="DEFAULT_VEHTYPE" speedFactor="1.02" vaporized=""/>
    <tripinfo id="veh0_0" depart="25.00" departLane="-359409608_0" departPos="5.10" departSpeed="0.00" departDelay="0.00" arrival="218.00" arrivalLane="-484446266#8_0" arrivalPos="248.85" arrivalSpeed="14.40" duration="193.00" routeLength="2959.40" waitingTime="16.00" waitingCount="1" stopTime="0.00" timeLoss="61.35" rerouteNo="0" devices="tripinfo_veh0_0" vType="DEFAULT_VEHTYPE" speedFactor="1.06" vaporized=""/>
    <tripinfo id="veh0_2" depart="25.00" departLane="-675107653#5_0" departPos="5.10" departSpeed="0.00" departDelay="0.00" arrival="230.00" arrivalLane="562021794#1_0" arrivalPos="11.24" arrivalSpeed="12.24" duration="205.00" routeLength="1084.02" waitingTime="117.00" waitingCount="3" stopTime="0.00" timeLoss="151.73" rerouteNo="0" devices="tripinfo_veh0_2" vType="DEFAULT_VEHTYPE" speedFactor="1.01" vaporized=""/>
    <tripinfo id="veh8_0" depart="49.00" departLane="-359409608_0" departPos="5.10" departSpeed="0.00" departDelay="24.00" arrival="254.00" arrivalLane="757450364#0_0" arrivalPos="86.62" arrivalSpeed="21.32" duration="205.00" routeLength="3662.88" waitingTime="4.00" waitingCount="1" stopTime="0.00" timeLoss="41.71" rerouteNo="0" devices="tripinfo_veh8_0" vType="DEFAULT_VEHTYPE" speedFactor="1.00" vaporized=""/>
    <tripinfo id="veh0_6" depart="28.00" departLane="562430406#8_0" departPos="5.10" departSpeed="0.00" departDelay="3.00" arrival="255.00" arrivalLane="-359409608_0" arrivalPos="135.48" arrivalSpeed="13.96" duration="227.00" routeLength="1822.75" waitingTime="78.00" waitingCount="3" stopTime="0.00" timeLoss="130.54" rerouteNo="0" devices="tripinfo_veh0_6" vType="DEFAULT_VEHTYPE" speedFactor="1.05" vaporized=""/>
    <tripinfo id="veh6_1" depart="25.00" departLane="363373882#0_0" departPos="5.10" departSpeed="0.00" departDelay="0.00" arrival="257.00" arrivalLane="-363359023#5_0" arrivalPos="55.81" arrivalSpeed="13.26" duration="232.00" routeLength="3277.08" waitingTime="0.00" waitingCount="0" stopTime="0.00" timeLoss="49.13" rerouteNo="0" devices="tripinfo_veh6_1" vType="DEFAULT_VEHTYPE" speedFactor="0.96" vaporized=""/>
    <tripinfo id="veh5_0" depart="40.00" departLane="-359409608_0" departPos="5.10" departSpeed="0.00" departDelay="15.00" arrival="265.00" arrivalLane="233703205#1_0" arrivalPos="81.35" arrivalSpeed="15.87" duration="225.00" routeLength="3647.79" waitingTime="0.00" waitingCount="0" stopTime="0.00" timeLoss="78.52" rerouteNo="0" devices="tripinfo_veh5_0" vType="DEFAULT_VEHTYPE" speedFactor="1.15" vaporized=""/>
    <tripinfo id="veh2_0" depart="31.00" departLane="-359409608_0" departPos="5.10" departSpeed="0.00" departDelay="6.00" arrival="292.00" arrivalLane="676492822_0" arrivalPos="72.78" arrivalSpeed="7.59" duration="261.00" routeLength="3715.62" waitingTime="3.00" waitingCount="1" stopTime="0.00" timeLoss="65.21" rerouteNo="0" devices="tripinfo_veh2_0" vType="DEFAULT_VEHTYPE" speedFactor="0.99" vaporized=""/>
    <tripinfo id="veh4_0" depart="37.00" departLane="-359409608_0" departPos="5.10" departSpeed="0.00" departDelay="12.00" arrival="307.00" arrivalLane="563175147#6_0" arrivalPos="123.61" arrivalSpeed="17.22" duration="270.00" routeLength="2803.54" waitingTime="74.00" waitingCount="2" stopTime="0.00" timeLoss="116.45" rerouteNo="0" devices="tripinfo_veh4_0" vType="DEFAULT_VEHTYPE" speedFactor="0.83" vaporized=""/>
    <tripinfo id="veh5_8" depart="25.00" departLane="539383762#7_0" departPos="5.10" departSpeed="0.00" departDelay="0.00" arrival="308.00" arrivalLane="-359409608_0" arrivalPos="135.48" arrivalSpeed="11.98" duration="283.00" routeLength="2407.34" waitingTime="104.00" waitingCount="2" stopTime="0.00" timeLoss="151.17" rerouteNo="0" devices="tripinfo_veh5_8" vType="DEFAULT_VEHTYPE" speedFactor="0.90" vaporized=""/>
    <tripinfo id="veh7_5" depart="25.00" departLane="362985258#0_0" departPos="5.10" departSpeed="0.00" departDelay="0.00" arrival="310.00" arrivalLane="-359409608_0" arrivalPos="135.48" arrivalSpeed="14.67" duration="285.00" routeLength="5243.21" waitingTime="0.00" waitingCount="0" stopTime="0.00" timeLoss="67.31" rerouteNo="0" devices="tripinfo_veh7_5" vType="DEFAULT_VEHTYPE" speedFactor="1.10" vaporized=""/>
    <tripinfo id="veh1_6" depart="25.00" departLane="563587627_0" departPos="5.10" departSpeed="0.00" departDelay="0.00" arrival="341.00" arrivalLane="-359409608_0" arrivalPos="135.48" arrivalSpeed="14.84" duration="316.00" routeLength="4161.59" waitingTime="73.00" waitingCount="2" stopTime="0.00" timeLoss="132.07" rerouteNo="0" devices="tripinfo_veh1_6" vType="DEFAULT_VEHTYPE" speedFactor="1.12" vaporized=""/>
    <tripinfo id="veh6_0" depart="43.00" departLane="-359409608_0" departPos="5.10" departSpeed="0.00" departDelay="18.00" arrival="501.00" arrivalLane="363373882#0_0" arrivalPos="12.94" arrivalSpeed="13.51" duration="458.00" routeLength="7325.73" waitingTime="76.00" waitingCount="2" stopTime="0.00" timeLoss="146.59" rerouteNo="0" devices="tripinfo_veh6_0" vType="DEFAULT_VEHTYPE" speedFactor="1.03" vaporized=""/>
    <tripinfo id="veh7_0" depart="46.00" departLane="-359409608_0" departPos="5.10" departSpeed="0.00" departDelay="21.00" arrival="523.00" arrivalLane="-362985261#6_0" arrivalPos="61.07" arrivalSpeed="11.90" duration="477.00" routeLength="8061.59" waitingTime="16.00" waitingCount="1" stopTime="0.00" timeLoss="93.01" rerouteNo="0" devices="tripinfo_veh7_0" vType="DEFAULT_VEHTYPE" speedFactor="0.88" vaporized=""/>
</tripinfos>
