<?xml version="1.0" encoding="UTF-8"?>

<!-- generated on 06/23/21 13:24:24 by Eclipse SUMO sumo Version 1.8.0
<configuration xmlns:xsi="http://www.w3.org/2001/XMLSchema-instance" xsi:noNamespaceSchemaLocation="http://sumo.dlr.de/xsd/sumoConfiguration.xsd">

    <input>
        <net-file value="1\../BSD.net.xml"/>
        <route-files value="1\bsd_001.rou.xml"/>
        <additional-files value="1\dua_dump_001.add.xml"/>
    </input>

    <output>
        <summary-output value="1\summary_001.xml"/>
        <tripinfo-output value="1\tripinfo_001.xml"/>
    </output>

    <time>
        <begin value="0"/>
    </time>

    <processing>
        <route-steps value="200"/>
        <no-internal-links value="false"/>
        <time-to-teleport value="300"/>
        <time-to-teleport.highways value="0"/>
        <eager-insert value="false"/>
    </processing>

    <report>
        <verbose value="true"/>
        <no-warnings value="false"/>
        <log value="1\iteration_001.sumo.log"/>
        <no-step-log value="true"/>
    </report>

    <random_number>
        <random value="false"/>
    </random_number>

</configuration>
-->

<tripinfos xmlns:xsi="http://www.w3.org/2001/XMLSchema-instance" xsi:noNamespaceSchemaLocation="http://sumo.dlr.de/xsd/tripinfo_file.xsd">
    <tripinfo id="veh0_3" depart="25.00" departLane="560361514#10_0" departPos="5.10" departSpeed="0.00" departDelay="0.00" arrival="51.00" arrivalLane="154148014#2_0" arrivalPos="6.55" arrivalSpeed="24.41" duration="26.00" routeLength="464.98" waitingTime="0.00" waitingCount="0" stopTime="0.00" timeLoss="9.46" rerouteNo="0" devices="tripinfo_veh0_3" vType="DEFAULT_VEHTYPE" speedFactor="1.08" vaporized=""/>
    <tripinfo id="veh2_2" depart="25.00" departLane="539383765#3_0" departPos="5.10" departSpeed="0.00" departDelay="0.00" arrival="53.00" arrivalLane="539383768#6_1" arrivalPos="45.63" arrivalSpeed="16.58" duration="28.00" routeLength="317.01" waitingTime="0.00" waitingCount="0" stopTime="0.00" timeLoss="8.60" rerouteNo="0" devices="tripinfo_veh2_2" vType="DEFAULT_VEHTYPE" speedFactor="1.12" vaporized=""/>
    <tripinfo id="veh0_2" depart="25.00" departLane="560361514#6_0" departPos="5.10" departSpeed="0.00" departDelay="0.00" arrival="60.00" arrivalLane="560361514#10_0" arrivalPos="202.28" arrivalSpeed="26.96" duration="35.00" routeLength="786.44" waitingTime="0.00" waitingCount="0" stopTime="0.00" timeLoss="6.14" rerouteNo="0" devices="tripinfo_veh0_2" vType="DEFAULT_VEHTYPE" speedFactor="1.01" vaporized=""/>
    <tripinfo id="veh2_5" depart="25.00" departLane="539383768#0_0" departPos="5.10" departSpeed="0.00" departDelay="0.00" arrival="63.00" arrivalLane="539383768#2_0" arrivalPos="239.65" arrivalSpeed="23.73" duration="38.00" routeLength="729.87" waitingTime="0.00" waitingCount="0" stopTime="0.00" timeLoss="7.14" rerouteNo="0" devices="tripinfo_veh2_5" vType="DEFAULT_VEHTYPE" speedFactor="0.88" vaporized=""/>
    <tripinfo id="veh2_1" depart="25.00" departLane="754594908#4_0" departPos="5.10" departSpeed="0.00" departDelay="0.00" arrival="91.00" arrivalLane="539383765#3_0" arrivalPos="264.82" arrivalSpeed="13.90" duration="66.00" routeLength="830.55" waitingTime="0.00" waitingCount="0" stopTime="0.00" timeLoss="15.12" rerouteNo="0" devices="tripinfo_veh2_1" vType="DEFAULT_VEHTYPE" speedFactor="1.05" vaporized=""/>
    <tripinfo id="veh0_4" depart="25.00" departLane="154148014#2_0" departPos="5.10" departSpeed="0.00" departDelay="0.00" arrival="100.00" arrivalLane="359246993#0_0" arrivalPos="70.96" arrivalSpeed="14.30" duration="75.00" routeLength="748.89" waitingTime="0.00" waitingCount="0" stopTime="0.00" timeLoss="29.07" rerouteNo="0" devices="tripinfo_veh0_4" vType="DEFAULT_VEHTYPE" speedFactor="1.03" vaporized=""/>
    <tripinfo id="veh0_5" depart="25.00" departLane="359246993#0_0" departPos="5.10" departSpeed="0.00" departDelay="0.00" arrival="108.00" arrivalLane="-484446266#8_0" arrivalPos="248.85" arrivalSpeed="11.09" duration="83.00" routeLength="1070.99" waitingTime="0.00" waitingCount="0" stopTime="0.00" timeLoss="16.85" rerouteNo="0" devices="tripinfo_veh0_5" vType="DEFAULT_VEHTYPE" speedFactor="0.83" vaporized=""/>
    <tripinfo id="veh2_4" depart="25.00" departLane="230291072_0" departPos="5.10" departSpeed="0.00" departDelay="0.00" arrival="122.00" arrivalLane="539383768#0_0" arrivalPos="201.66" arrivalSpeed="24.95" duration="97.00" routeLength="1010.36" waitingTime="0.00" waitingCount="0" stopTime="0.00" timeLoss="23.19" rerouteNo="0" devices="tripinfo_veh2_4" vType="DEFAULT_VEHTYPE" speedFactor="0.93" vaporized=""/>
    <tripinfo id="veh1_1" depart="25.00" departLane="562021794#1_0" departPos="5.10" departSpeed="0.00" departDelay="0.00" arrival="132.00" arrivalLane="539383767#1_0" arrivalPos="58.17" arrivalSpeed="12.71" duration="107.00" routeLength="1886.08" waitingTime="0.00" waitingCount="0" stopTime="0.00" timeLoss="26.11" rerouteNo="0" devices="tripinfo_veh1_1" vType="DEFAULT_VEHTYPE" speedFactor="0.94" vaporized=""/>
    <tripinfo id="veh1_0" depart="28.00" departLane="-359409608_0" departPos="5.10" departSpeed="0.00" departDelay="3.00" arrival="142.00" arrivalLane="562021794#1_1" arrivalPos="11.24" arrivalSpeed="15.49" duration="114.00" routeLength="1404.66" waitingTime="0.00" waitingCount="0" stopTime="0.00" timeLoss="34.99" rerouteNo="0" devices="tripinfo_veh1_0" vType="DEFAULT_VEHTYPE" speedFactor="0.89" vaporized=""/>
    <tripinfo id="veh0_1" depart="25.00" departLane="-675107653#5_0" departPos="5.10" departSpeed="0.00" departDelay="0.00" arrival="144.00" arrivalLane="560361514#6_0" arrivalPos="442.89" arrivalSpeed="25.44" duration="119.00" routeLength="1922.27" waitingTime="3.00" waitingCount="1" stopTime="0.00" timeLoss="29.00" rerouteNo="0" devices="tripinfo_veh0_1" vType="DEFAULT_VEHTYPE" speedFactor="0.94" vaporized=""/>
    <tripinfo id="veh1_3" depart="25.00" departLane="154148013#6_0" departPos="5.10" departSpeed="0.00" departDelay="0.00" arrival="170.00" arrivalLane="-359409608_0" arrivalPos="135.48" arrivalSpeed="14.54" duration="145.00" routeLength="1539.72" waitingTime="36.00" waitingCount="1" stopTime="0.00" timeLoss="73.45" rerouteNo="0" devices="tripinfo_veh1_3" vType="DEFAULT_VEHTYPE" speedFactor="1.09" vaporized=""/>
    <tripinfo id="veh0_0" depart="25.00" departLane="-359409608_0" departPos="5.10" departSpeed="0.00" departDelay="0.00" arrival="206.00" arrivalLane="-675107653#5_0" arrivalPos="68.60" arrivalSpeed="14.22" duration="181.00" routeLength="2689.22" waitingTime="18.00" waitingCount="1" stopTime="0.00" timeLoss="61.44" rerouteNo="0" devices="tripinfo_veh0_0" vType="DEFAULT_VEHTYPE" speedFactor="1.06" vaporized=""/>
    <tripinfo id="veh2_3" depart="25.00" departLane="539383768#6_0" departPos="5.10" departSpeed="0.00" departDelay="0.00" arrival="210.00" arrivalLane="230291072_0" arrivalPos="179.75" arrivalSpeed="13.09" duration="185.00" routeLength="2810.01" waitingTime="0.00" waitingCount="0" stopTime="0.00" timeLoss="31.32" rerouteNo="0" devices="tripinfo_veh2_3" vType="DEFAULT_VEHTYPE" speedFactor="0.99" vaporized=""/>
    <tripinfo id="veh1_2" depart="25.00" departLane="539383767#1_0" departPos="5.10" departSpeed="0.00" departDelay="0.00" arrival="227.00" arrivalLane="154148013#6_0" arrivalPos="327.33" arrivalSpeed="23.16" duration="202.00" routeLength="1766.58" waitingTime="57.00" waitingCount="2" stopTime="0.00" timeLoss="91.65" rerouteNo="0" devices="tripinfo_veh1_2" vType="DEFAULT_VEHTYPE" speedFactor="0.86" vaporized=""/>
    <tripinfo id="veh2_0" depart="31.00" departLane="-359409608_0" departPos="5.10" departSpeed="0.00" departDelay="6.00" arrival="240.00" arrivalLane="754594908#4_1" arrivalPos="190.58" arrivalSpeed="27.59" duration="209.00" routeLength="2642.25" waitingTime="38.00" waitingCount="1" stopTime="0.00" timeLoss="93.78" rerouteNo="0" devices="tripinfo_veh2_0" vType="DEFAULT_VEHTYPE" speedFactor="1.03" vaporized=""/>
    <tripinfo id="veh0_6" depart="25.00" departLane="-484446266#8_0" departPos="5.10" departSpeed="0.00" departDelay="0.00" arrival="256.00" arrivalLane="-359409608_0" arrivalPos="135.48" arrivalSpeed="14.06" duration="231.00" routeLength="2749.35" waitingTime="52.00" waitingCount="2" stopTime="0.00" timeLoss="98.15" rerouteNo="0" devices="tripinfo_veh0_6" vType="DEFAULT_VEHTYPE" speedFactor="1.05" vaporized=""/>
    <tripinfo id="veh2_6" depart="25.00" departLane="539383768#2_0" departPos="5.10" departSpeed="0.00" departDelay="0.00" arrival="263.00" arrivalLane="-359409608_0" arrivalPos="135.48" arrivalSpeed="12.73" duration="238.00" routeLength="3120.88" waitingTime="15.00" waitingCount="1" stopTime="0.00" timeLoss="60.47" rerouteNo="0" devices="tripinfo_veh2_6" vType="DEFAULT_VEHTYPE" speedFactor="0.94" vaporized=""/>
</tripinfos>
