<?xml version="1.0" encoding="UTF-8"?>

<!-- generated on 07/03/21 19:09:24 by Eclipse SUMO sumo Version 1.8.0
<configuration xmlns:xsi="http://www.w3.org/2001/XMLSchema-instance" xsi:noNamespaceSchemaLocation="http://sumo.dlr.de/xsd/sumoConfiguration.xsd">

    <input>
        <net-file value="1\../BSD.net.xml"/>
        <route-files value="1\bsd_001.rou.xml"/>
        <additional-files value="1\dua_dump_001.add.xml"/>
    </input>

    <output>
        <summary-output value="1\summary_001.xml"/>
        <tripinfo-output value="1\tripinfo_001.xml"/>
    </output>

    <time>
        <begin value="0"/>
    </time>

    <processing>
        <route-steps value="200"/>
        <no-internal-links value="false"/>
        <time-to-teleport value="300"/>
        <time-to-teleport.highways value="0"/>
        <eager-insert value="false"/>
    </processing>

    <report>
        <verbose value="true"/>
        <no-warnings value="false"/>
        <log value="1\iteration_001.sumo.log"/>
        <no-step-log value="true"/>
    </report>

    <random_number>
        <random value="false"/>
    </random_number>

</configuration>
-->

<tripinfos xmlns:xsi="http://www.w3.org/2001/XMLSchema-instance" xsi:noNamespaceSchemaLocation="http://sumo.dlr.de/xsd/tripinfo_file.xsd">
    <tripinfo id="veh3_6" depart="25.00" departLane="539383765#3_0" departPos="5.10" departSpeed="0.00" departDelay="0.00" arrival="55.00" arrivalLane="539383768#6_1" arrivalPos="45.63" arrivalSpeed="14.04" duration="30.00" routeLength="317.01" waitingTime="0.00" waitingCount="0" stopTime="0.00" timeLoss="7.43" rerouteNo="0" devices="tripinfo_veh3_6" vType="DEFAULT_VEHTYPE" speedFactor="0.95" vaporized=""/>
    <tripinfo id="veh3_1" depart="25.00" departLane="359244608#0_0" departPos="5.10" departSpeed="0.00" departDelay="0.00" arrival="56.00" arrivalLane="359244597#1_0" arrivalPos="33.77" arrivalSpeed="12.54" duration="31.00" routeLength="327.83" waitingTime="0.00" waitingCount="0" stopTime="0.00" timeLoss="5.81" rerouteNo="0" devices="tripinfo_veh3_1" vType="DEFAULT_VEHTYPE" speedFactor="0.98" vaporized=""/>
    <tripinfo id="veh4_1" depart="25.00" departLane="359247300#0_0" departPos="5.10" departSpeed="0.00" departDelay="0.00" arrival="56.00" arrivalLane="359247300#1_0" arrivalPos="219.61" arrivalSpeed="15.91" duration="31.00" routeLength="390.42" waitingTime="0.00" waitingCount="0" stopTime="0.00" timeLoss="6.33" rerouteNo="0" devices="tripinfo_veh4_1" vType="DEFAULT_VEHTYPE" speedFactor="1.18" vaporized=""/>
    <tripinfo id="veh5_3" depart="25.00" departLane="396051491#3_0" departPos="5.10" departSpeed="0.00" departDelay="0.00" arrival="66.00" arrivalLane="766136200_1" arrivalPos="53.47" arrivalSpeed="27.74" duration="41.00" routeLength="780.92" waitingTime="0.00" waitingCount="0" stopTime="0.00" timeLoss="12.62" rerouteNo="0" devices="tripinfo_veh5_3" vType="DEFAULT_VEHTYPE" speedFactor="1.03" vaporized=""/>
    <tripinfo id="veh1_6" depart="25.00" departLane="-362985261#6_0" departPos="5.10" departSpeed="0.00" departDelay="0.00" arrival="73.00" arrivalLane="362985244#7_0" arrivalPos="27.72" arrivalSpeed="13.26" duration="48.00" routeLength="475.60" waitingTime="0.00" waitingCount="0" stopTime="0.00" timeLoss="14.31" rerouteNo="0" devices="tripinfo_veh1_6" vType="DEFAULT_VEHTYPE" speedFactor="1.05" vaporized=""/>
    <tripinfo id="veh4_2" depart="25.00" departLane="359247300#1_0" departPos="5.10" departSpeed="0.00" departDelay="0.00" arrival="78.00" arrivalLane="563587627_0" arrivalPos="120.78" arrivalSpeed="15.74" duration="53.00" routeLength="631.35" waitingTime="0.00" waitingCount="0" stopTime="0.00" timeLoss="11.32" rerouteNo="0" devices="tripinfo_veh4_2" vType="DEFAULT_VEHTYPE" speedFactor="1.15" vaporized=""/>
    <tripinfo id="veh1_5" depart="25.00" departLane="781684931#0_0" departPos="5.10" departSpeed="0.00" departDelay="0.00" arrival="83.00" arrivalLane="-362985261#6_0" arrivalPos="61.07" arrivalSpeed="14.22" duration="58.00" routeLength="539.92" waitingTime="0.00" waitingCount="0" stopTime="0.00" timeLoss="18.59" rerouteNo="0" devices="tripinfo_veh1_5" vType="DEFAULT_VEHTYPE" speedFactor="1.03" vaporized=""/>
    <tripinfo id="veh5_1" depart="25.00" departLane="403676096#0_0" departPos="5.10" departSpeed="0.00" departDelay="0.00" arrival="84.00" arrivalLane="168328152#0_0" arrivalPos="48.55" arrivalSpeed="14.95" duration="59.00" routeLength="786.76" waitingTime="0.00" waitingCount="0" stopTime="0.00" timeLoss="18.39" rerouteNo="0" devices="tripinfo_veh5_1" vType="DEFAULT_VEHTYPE" speedFactor="1.10" vaporized=""/>
    <tripinfo id="veh7_1" depart="25.00" departLane="359247813#2_0" departPos="5.10" departSpeed="0.00" departDelay="0.00" arrival="95.00" arrivalLane="562430406#8_0" arrivalPos="392.55" arrivalSpeed="11.25" duration="70.00" routeLength="700.52" waitingTime="0.00" waitingCount="0" stopTime="0.00" timeLoss="8.18" rerouteNo="0" devices="tripinfo_veh7_1" vType="DEFAULT_VEHTYPE" speedFactor="0.85" vaporized=""/>
    <tripinfo id="veh7_2" depart="28.00" departLane="562430406#8_0" departPos="5.10" departSpeed="0.00" departDelay="3.00" arrival="95.00" arrivalLane="398041366#1_0" arrivalPos="85.07" arrivalSpeed="16.10" duration="67.00" routeLength="933.06" waitingTime="0.00" waitingCount="0" stopTime="0.00" timeLoss="20.65" rerouteNo="0" devices="tripinfo_veh7_2" vType="DEFAULT_VEHTYPE" speedFactor="1.17" vaporized=""/>
    <tripinfo id="veh4_5" depart="25.00" departLane="359246993#0_0" departPos="5.10" departSpeed="0.00" departDelay="0.00" arrival="99.00" arrivalLane="-484446266#8_0" arrivalPos="248.85" arrivalSpeed="13.44" duration="74.00" routeLength="1070.99" waitingTime="0.00" waitingCount="0" stopTime="0.00" timeLoss="19.49" rerouteNo="0" devices="tripinfo_veh4_5" vType="DEFAULT_VEHTYPE" speedFactor="0.99" vaporized=""/>
    <tripinfo id="veh4_6" depart="25.00" departLane="-484446266#8_0" departPos="5.10" departSpeed="0.00" departDelay="0.00" arrival="100.00" arrivalLane="-675107653#5_0" arrivalPos="68.60" arrivalSpeed="13.80" duration="75.00" routeLength="852.46" waitingTime="0.00" waitingCount="0" stopTime="0.00" timeLoss="17.30" rerouteNo="0" devices="tripinfo_veh4_6" vType="DEFAULT_VEHTYPE" speedFactor="1.02" vaporized=""/>
    <tripinfo id="veh5_2" depart="25.00" departLane="168328152#0_0" departPos="5.10" departSpeed="0.00" departDelay="0.00" arrival="102.00" arrivalLane="396051491#3_0" arrivalPos="141.12" arrivalSpeed="24.78" duration="77.00" routeLength="1038.82" waitingTime="0.00" waitingCount="0" stopTime="0.00" timeLoss="29.32" rerouteNo="0" devices="tripinfo_veh5_2" vType="DEFAULT_VEHTYPE" speedFactor="0.90" vaporized=""/>
    <tripinfo id="veh6_1" depart="25.00" departLane="560361514#6_0" departPos="5.10" departSpeed="0.00" departDelay="0.00" arrival="102.00" arrivalLane="562021790#0_1" arrivalPos="53.64" arrivalSpeed="28.03" duration="77.00" routeLength="1621.90" waitingTime="0.00" waitingCount="0" stopTime="0.00" timeLoss="18.50" rerouteNo="0" devices="tripinfo_veh6_1" vType="DEFAULT_VEHTYPE" speedFactor="1.04" vaporized=""/>
    <tripinfo id="veh6_2" depart="25.00" departLane="562021790#0_0" departPos="5.10" departSpeed="0.00" departDelay="0.00" arrival="106.00" arrivalLane="562430406#8_0" arrivalPos="392.55" arrivalSpeed="13.90" duration="81.00" routeLength="1069.12" waitingTime="0.00" waitingCount="0" stopTime="0.00" timeLoss="15.37" rerouteNo="0" devices="tripinfo_veh6_2" vType="DEFAULT_VEHTYPE" speedFactor="1.09" vaporized=""/>
    <tripinfo id="veh4_4" depart="25.00" departLane="560361514#10_0" departPos="5.10" departSpeed="0.00" departDelay="0.00" arrival="109.00" arrivalLane="359246993#0_0" arrivalPos="70.96" arrivalSpeed="15.05" duration="84.00" routeLength="1212.42" waitingTime="0.00" waitingCount="0" stopTime="0.00" timeLoss="28.74" rerouteNo="0" devices="tripinfo_veh4_4" vType="DEFAULT_VEHTYPE" speedFactor="1.17" vaporized=""/>
    <tripinfo id="veh7_5" depart="25.00" departLane="359408298#2_0" departPos="5.10" departSpeed="0.00" departDelay="0.00" arrival="112.00" arrivalLane="-359408277#0_0" arrivalPos="175.18" arrivalSpeed="13.27" duration="87.00" routeLength="1066.76" waitingTime="0.00" waitingCount="0" stopTime="0.00" timeLoss="8.80" rerouteNo="0" devices="tripinfo_veh7_5" vType="DEFAULT_VEHTYPE" speedFactor="1.00" vaporized=""/>
    <tripinfo id="veh3_4" depart="25.00" departLane="539383768#2_0" departPos="5.10" departSpeed="0.00" departDelay="0.00" arrival="124.00" arrivalLane="539383762#7_0" arrivalPos="169.23" arrivalSpeed="11.67" duration="99.00" routeLength="1358.30" waitingTime="0.00" waitingCount="0" stopTime="0.00" timeLoss="17.06" rerouteNo="0" devices="tripinfo_veh3_4" vType="DEFAULT_VEHTYPE" speedFactor="0.87" vaporized=""/>
    <tripinfo id="veh2_3" depart="25.00" departLane="562549612#1_0" departPos="5.10" departSpeed="0.00" departDelay="0.00" arrival="125.00" arrivalLane="154148014#2_0" arrivalPos="6.55" arrivalSpeed="22.38" duration="100.00" routeLength="1569.75" waitingTime="0.00" waitingCount="0" stopTime="0.00" timeLoss="22.35" rerouteNo="0" devices="tripinfo_veh2_3" vType="DEFAULT_VEHTYPE" speedFactor="0.94" vaporized=""/>
    <tripinfo id="veh7_4" depart="25.00" departLane="562021794#1_0" departPos="5.10" departSpeed="0.00" departDelay="0.00" arrival="129.00" arrivalLane="359408298#2_0" arrivalPos="137.25" arrivalSpeed="14.99" duration="104.00" routeLength="1380.76" waitingTime="17.00" waitingCount="1" stopTime="0.00" timeLoss="46.11" rerouteNo="0" devices="tripinfo_veh7_4" vType="DEFAULT_VEHTYPE" speedFactor="1.10" vaporized=""/>
    <tripinfo id="veh2_2" depart="25.00" departLane="676492822_0" departPos="5.10" departSpeed="0.00" departDelay="0.00" arrival="131.00" arrivalLane="562549612#1_0" arrivalPos="393.19" arrivalSpeed="12.00" duration="106.00" routeLength="1071.29" waitingTime="0.00" waitingCount="0" stopTime="0.00" timeLoss="17.70" rerouteNo="0" devices="tripinfo_veh2_2" vType="DEFAULT_VEHTYPE" speedFactor="0.88" vaporized=""/>
    <tripinfo id="veh2_5" depart="25.00" departLane="233703186#0_0" departPos="5.10" departSpeed="0.00" departDelay="0.00" arrival="132.00" arrivalLane="539383768#0_0" arrivalPos="201.66" arrivalSpeed="26.46" duration="107.00" routeLength="1085.27" waitingTime="3.00" waitingCount="1" stopTime="0.00" timeLoss="41.98" rerouteNo="0" devices="tripinfo_veh2_5" vType="DEFAULT_VEHTYPE" speedFactor="1.16" vaporized=""/>
    <tripinfo id="veh6_3" depart="25.00" departLane="562430406#8_0" departPos="5.10" departSpeed="0.00" departDelay="0.00" arrival="134.00" arrivalLane="754594908#4_0" arrivalPos="190.58" arrivalSpeed="27.30" duration="109.00" routeLength="2019.32" waitingTime="0.00" waitingCount="0" stopTime="0.00" timeLoss="19.54" rerouteNo="0" devices="tripinfo_veh6_3" vType="DEFAULT_VEHTYPE" speedFactor="1.00" vaporized=""/>
    <tripinfo id="veh7_3" depart="25.00" departLane="398041366#1_0" departPos="5.10" departSpeed="0.00" departDelay="0.00" arrival="140.00" arrivalLane="562021794#1_0" arrivalPos="11.24" arrivalSpeed="10.88" duration="115.00" routeLength="670.83" waitingTime="48.00" waitingCount="2" stopTime="0.00" timeLoss="72.92" rerouteNo="0" devices="tripinfo_veh7_3" vType="DEFAULT_VEHTYPE" speedFactor="1.02" vaporized=""/>
    <tripinfo id="veh1_4" depart="25.00" departLane="358237489#0_0" departPos="5.10" departSpeed="0.00" departDelay="0.00" arrival="144.00" arrivalLane="781684931#0_0" arrivalPos="57.29" arrivalSpeed="14.27" duration="119.00" routeLength="2361.48" waitingTime="0.00" waitingCount="0" stopTime="0.00" timeLoss="29.89" rerouteNo="0" devices="tripinfo_veh1_4" vType="DEFAULT_VEHTYPE" speedFactor="1.09" vaporized=""/>
    <tripinfo id="veh5_4" depart="25.00" departLane="766136200_0" departPos="5.10" departSpeed="0.00" departDelay="0.00" arrival="144.00" arrivalLane="154148013#6_0" arrivalPos="327.33" arrivalSpeed="25.73" duration="119.00" routeLength="2089.44" waitingTime="5.00" waitingCount="1" stopTime="0.00" timeLoss="36.76" rerouteNo="0" devices="tripinfo_veh5_4" vType="DEFAULT_VEHTYPE" speedFactor="0.96" vaporized=""/>
    <tripinfo id="veh3_2" depart="25.00" departLane="359244597#1_0" departPos="5.10" departSpeed="0.00" departDelay="0.00" arrival="146.00" arrivalLane="233703205#1_0" arrivalPos="81.35" arrivalSpeed="12.05" duration="121.00" routeLength="1121.19" waitingTime="0.00" waitingCount="0" stopTime="0.00" timeLoss="23.26" rerouteNo="0" devices="tripinfo_veh3_2" vType="DEFAULT_VEHTYPE" speedFactor="0.89" vaporized=""/>
    <tripinfo id="veh1_2" depart="25.00" departLane="-363359023#5_0" departPos="5.10" departSpeed="0.00" departDelay="0.00" arrival="148.00" arrivalLane="363002237#4_0" arrivalPos="45.42" arrivalSpeed="12.48" duration="123.00" routeLength="1620.37" waitingTime="0.00" waitingCount="0" stopTime="0.00" timeLoss="26.33" rerouteNo="0" devices="tripinfo_veh1_2" vType="DEFAULT_VEHTYPE" speedFactor="0.94" vaporized=""/>
    <tripinfo id="veh2_1" depart="25.00" departLane="-563587585#0_0" departPos="5.10" departSpeed="0.00" departDelay="0.00" arrival="148.00" arrivalLane="676492822_0" arrivalPos="72.78" arrivalSpeed="7.43" duration="123.00" routeLength="1861.14" waitingTime="0.00" waitingCount="0" stopTime="0.00" timeLoss="20.88" rerouteNo="0" devices="tripinfo_veh2_1" vType="DEFAULT_VEHTYPE" speedFactor="0.93" vaporized=""/>
    <tripinfo id="veh4_3" depart="25.00" departLane="563587627_0" departPos="5.10" departSpeed="0.00" departDelay="0.00" arrival="151.00" arrivalLane="560361514#10_0" arrivalPos="202.28" arrivalSpeed="27.58" duration="126.00" routeLength="1445.54" waitingTime="3.00" waitingCount="1" stopTime="0.00" timeLoss="36.51" rerouteNo="0" devices="tripinfo_veh4_3" vType="DEFAULT_VEHTYPE" speedFactor="1.01" vaporized=""/>
    <tripinfo id="veh0_1" depart="25.00" departLane="479199742#1_0" departPos="5.10" departSpeed="0.00" departDelay="0.00" arrival="155.00" arrivalLane="729152092#2_0" arrivalPos="908.74" arrivalSpeed="20.13" duration="130.00" routeLength="2527.84" waitingTime="0.00" waitingCount="0" stopTime="0.00" timeLoss="8.20" rerouteNo="0" devices="tripinfo_veh0_1" vType="DEFAULT_VEHTYPE" speedFactor="0.94" vaporized=""/>
    <tripinfo id="veh6_4" depart="25.00" departLane="754594908#4_0" departPos="5.10" departSpeed="0.00" departDelay="0.00" arrival="156.00" arrivalLane="539383767#1_0" arrivalPos="58.17" arrivalSpeed="11.22" duration="131.00" routeLength="1619.30" waitingTime="0.00" waitingCount="0" stopTime="0.00" timeLoss="28.52" rerouteNo="0" devices="tripinfo_veh6_4" vType="DEFAULT_VEHTYPE" speedFactor="0.90" vaporized=""/>
    <tripinfo id="veh3_3" depart="25.00" departLane="233703205#1_0" departPos="5.10" departSpeed="0.00" departDelay="0.00" arrival="164.00" arrivalLane="539383768#2_0" arrivalPos="239.65" arrivalSpeed="21.99" duration="139.00" routeLength="1703.28" waitingTime="0.00" waitingCount="0" stopTime="0.00" timeLoss="21.29" rerouteNo="0" devices="tripinfo_veh3_3" vType="DEFAULT_VEHTYPE" speedFactor="0.83" vaporized=""/>
    <tripinfo id="veh2_4" depart="25.00" departLane="154148014#2_0" departPos="5.10" departSpeed="0.00" departDelay="0.00" arrival="165.00" arrivalLane="233703186#0_0" arrivalPos="230.12" arrivalSpeed="12.33" duration="140.00" routeLength="1522.47" waitingTime="0.00" waitingCount="0" stopTime="0.00" timeLoss="25.25" rerouteNo="0" devices="tripinfo_veh2_4" vType="DEFAULT_VEHTYPE" speedFactor="0.94" vaporized=""/>
    <tripinfo id="veh5_5" depart="25.00" departLane="154148013#6_0" departPos="5.10" departSpeed="0.00" departDelay="0.00" arrival="168.00" arrivalLane="-359409608_0" arrivalPos="135.48" arrivalSpeed="14.21" duration="143.00" routeLength="1539.72" waitingTime="37.00" waitingCount="1" stopTime="0.00" timeLoss="71.56" rerouteNo="0" devices="tripinfo_veh5_5" vType="DEFAULT_VEHTYPE" speedFactor="1.09" vaporized=""/>
    <tripinfo id="veh7_6" depart="25.00" departLane="-359408277#0_0" departPos="5.10" departSpeed="0.00" departDelay="0.00" arrival="177.00" arrivalLane="757450364#0_0" arrivalPos="86.62" arrivalSpeed="21.86" duration="152.00" routeLength="2913.72" waitingTime="0.00" waitingCount="0" stopTime="0.00" timeLoss="24.90" rerouteNo="0" devices="tripinfo_veh7_6" vType="DEFAULT_VEHTYPE" speedFactor="1.00" vaporized=""/>
    <tripinfo id="veh3_5" depart="25.00" departLane="539383762#7_0" departPos="5.10" departSpeed="0.00" departDelay="0.00" arrival="178.00" arrivalLane="539383765#3_0" arrivalPos="264.82" arrivalSpeed="11.92" duration="153.00" routeLength="1812.95" waitingTime="0.00" waitingCount="0" stopTime="0.00" timeLoss="24.73" rerouteNo="0" devices="tripinfo_veh3_5" vType="DEFAULT_VEHTYPE" speedFactor="0.92" vaporized=""/>
    <tripinfo id="veh1_3" depart="25.00" departLane="363002237#4_0" departPos="5.10" departSpeed="0.00" departDelay="0.00" arrival="186.00" arrivalLane="358237489#0_0" arrivalPos="86.17" arrivalSpeed="11.27" duration="161.00" routeLength="1881.97" waitingTime="3.00" waitingCount="1" stopTime="0.00" timeLoss="32.16" rerouteNo="0" devices="tripinfo_veh1_3" vType="DEFAULT_VEHTYPE" speedFactor="0.86" vaporized=""/>
    <tripinfo id="veh3_7" depart="25.00" departLane="539383768#6_0" departPos="5.10" departSpeed="0.00" departDelay="0.00" arrival="200.00" arrivalLane="-359409608_0" arrivalPos="135.48" arrivalSpeed="14.66" duration="175.00" routeLength="2406.44" waitingTime="35.00" waitingCount="2" stopTime="0.00" timeLoss="78.94" rerouteNo="0" devices="tripinfo_veh3_7" vType="DEFAULT_VEHTYPE" speedFactor="1.13" vaporized=""/>
    <tripinfo id="veh0_2" depart="25.00" departLane="729152092#2_0" departPos="5.10" departSpeed="0.00" departDelay="0.00" arrival="211.00" arrivalLane="362347497#7_0" arrivalPos="149.91" arrivalSpeed="22.35" duration="186.00" routeLength="3777.39" waitingTime="0.00" waitingCount="0" stopTime="0.00" timeLoss="16.90" rerouteNo="0" devices="tripinfo_veh0_2" vType="DEFAULT_VEHTYPE" speedFactor="1.01" vaporized=""/>
    <tripinfo id="veh0_3" depart="25.00" departLane="362347497#7_0" departPos="5.10" departSpeed="0.00" departDelay="0.00" arrival="211.00" arrivalLane="563175147#6_0" arrivalPos="123.61" arrivalSpeed="23.31" duration="186.00" routeLength="1036.65" waitingTime="113.00" waitingCount="3" stopTime="0.00" timeLoss="141.13" rerouteNo="0" devices="tripinfo_veh0_3" vType="DEFAULT_VEHTYPE" speedFactor="1.08" vaporized=""/>
    <tripinfo id="veh6_0" depart="43.00" departLane="-359409608_0" departPos="5.10" departSpeed="0.00" departDelay="18.00" arrival="214.00" arrivalLane="560361514#6_0" arrivalPos="442.89" arrivalSpeed="27.71" duration="171.00" routeLength="3070.66" waitingTime="0.00" waitingCount="0" stopTime="0.00" timeLoss="45.19" rerouteNo="0" devices="tripinfo_veh6_0" vType="DEFAULT_VEHTYPE" speedFactor="1.04" vaporized=""/>
    <tripinfo id="veh7_0" depart="46.00" departLane="-359409608_0" departPos="5.10" departSpeed="0.00" departDelay="21.00" arrival="218.00" arrivalLane="359247813#2_0" arrivalPos="275.45" arrivalSpeed="11.68" duration="172.00" routeLength="2237.89" waitingTime="0.00" waitingCount="0" stopTime="0.00" timeLoss="33.26" rerouteNo="0" devices="tripinfo_veh7_0" vType="DEFAULT_VEHTYPE" speedFactor="0.85" vaporized=""/>
    <tripinfo id="veh4_0" depart="37.00" departLane="-359409608_0" departPos="5.10" departSpeed="0.00" departDelay="12.00" arrival="244.00" arrivalLane="359247300#0_0" arrivalPos="161.40" arrivalSpeed="12.53" duration="207.00" routeLength="3681.05" waitingTime="0.00" waitingCount="0" stopTime="0.00" timeLoss="35.96" rerouteNo="0" devices="tripinfo_veh4_0" vType="DEFAULT_VEHTYPE" speedFactor="0.93" vaporized=""/>
    <tripinfo id="veh6_5" depart="25.00" departLane="539383767#1_0" departPos="5.10" departSpeed="0.00" departDelay="0.00" arrival="263.00" arrivalLane="-359409608_0" arrivalPos="135.48" arrivalSpeed="11.81" duration="238.00" routeLength="2054.82" waitingTime="57.00" waitingCount="2" stopTime="0.00" timeLoss="97.82" rerouteNo="0" devices="tripinfo_veh6_5" vType="DEFAULT_VEHTYPE" speedFactor="0.88" vaporized=""/>
    <tripinfo id="veh4_7" depart="25.00" departLane="-675107653#5_0" departPos="5.10" departSpeed="0.00" departDelay="0.00" arrival="265.00" arrivalLane="-359409608_0" arrivalPos="135.48" arrivalSpeed="13.43" duration="240.00" routeLength="2108.53" waitingTime="78.00" waitingCount="2" stopTime="0.00" timeLoss="128.31" rerouteNo="0" devices="tripinfo_veh4_7" vType="DEFAULT_VEHTYPE" speedFactor="0.97" vaporized=""/>
    <tripinfo id="veh0_4" depart="25.00" departLane="563175147#6_0" departPos="5.10" departSpeed="0.00" departDelay="0.00" arrival="266.00" arrivalLane="230291072_0" arrivalPos="179.75" arrivalSpeed="13.35" duration="241.00" routeLength="3295.26" waitingTime="50.00" waitingCount="2" stopTime="0.00" timeLoss="90.45" rerouteNo="0" devices="tripinfo_veh0_4" vType="DEFAULT_VEHTYPE" speedFactor="1.03" vaporized=""/>
    <tripinfo id="veh1_1" depart="25.00" departLane="363373882#0_0" departPos="5.10" departSpeed="0.00" departDelay="0.00" arrival="272.00" arrivalLane="-363359023#5_0" arrivalPos="55.81" arrivalSpeed="11.80" duration="247.00" routeLength="3277.08" waitingTime="0.00" waitingCount="0" stopTime="0.00" timeLoss="49.91" rerouteNo="0" devices="tripinfo_veh1_1" vType="DEFAULT_VEHTYPE" speedFactor="0.89" vaporized=""/>
    <tripinfo id="veh5_0" depart="40.00" departLane="-359409608_0" departPos="5.10" departSpeed="0.00" departDelay="15.00" arrival="278.00" arrivalLane="403676096#0_0" arrivalPos="281.18" arrivalSpeed="15.73" duration="238.00" routeLength="4482.73" waitingTime="0.00" waitingCount="0" stopTime="0.00" timeLoss="62.60" rerouteNo="0" devices="tripinfo_veh5_0" vType="DEFAULT_VEHTYPE" speedFactor="1.18" vaporized=""/>
    <tripinfo id="veh3_0" depart="34.00" departLane="-359409608_0" departPos="5.10" departSpeed="0.00" departDelay="9.00" arrival="279.00" arrivalLane="359244608#0_0" arrivalPos="92.62" arrivalSpeed="13.06" duration="245.00" routeLength="4015.20" waitingTime="2.00" waitingCount="1" stopTime="0.00" timeLoss="51.03" rerouteNo="0" devices="tripinfo_veh3_0" vType="DEFAULT_VEHTYPE" speedFactor="1.01" vaporized=""/>
    <tripinfo id="veh0_0" depart="25.00" departLane="-359409608_0" departPos="5.10" departSpeed="0.00" departDelay="0.00" arrival="300.00" arrivalLane="479199742#1_0" arrivalPos="409.63" arrivalSpeed="23.11" duration="275.00" routeLength="4707.16" waitingTime="38.00" waitingCount="1" stopTime="0.00" timeLoss="74.40" rerouteNo="0" devices="tripinfo_veh0_0" vType="DEFAULT_VEHTYPE" speedFactor="1.06" vaporized=""/>
    <tripinfo id="veh2_6" depart="25.00" departLane="539383768#0_0" departPos="5.10" departSpeed="0.00" departDelay="0.00" arrival="301.00" arrivalLane="-359409608_0" arrivalPos="135.48" arrivalSpeed="13.62" duration="276.00" routeLength="3714.67" waitingTime="75.00" waitingCount="3" stopTime="0.00" timeLoss="122.50" rerouteNo="0" devices="tripinfo_veh2_6" vType="DEFAULT_VEHTYPE" speedFactor="1.02" vaporized=""/>
    <tripinfo id="veh8_1" depart="25.00" departLane="362985258#0_0" departPos="5.10" departSpeed="0.00" departDelay="0.00" arrival="317.00" arrivalLane="-359409608_0" arrivalPos="135.48" arrivalSpeed="13.02" duration="292.00" routeLength="5243.21" waitingTime="0.00" waitingCount="0" stopTime="0.00" timeLoss="59.10" rerouteNo="0" devices="tripinfo_veh8_1" vType="DEFAULT_VEHTYPE" speedFactor="1.02" vaporized=""/>
    <tripinfo id="veh2_0" depart="31.00" departLane="-359409608_0" departPos="5.10" departSpeed="0.00" departDelay="6.00" arrival="342.00" arrivalLane="-563587585#0_0" arrivalPos="28.41" arrivalSpeed="12.62" duration="311.00" routeLength="5168.47" waitingTime="7.00" waitingCount="1" stopTime="0.00" timeLoss="71.90" rerouteNo="0" devices="tripinfo_veh2_0" vType="DEFAULT_VEHTYPE" speedFactor="0.99" vaporized=""/>
    <tripinfo id="veh1_7" depart="25.00" departLane="362985244#7_0" departPos="5.10" departSpeed="0.00" departDelay="0.00" arrival="347.00" arrivalLane="-359409608_0" arrivalPos="135.48" arrivalSpeed="14.42" duration="322.00" routeLength="6774.73" waitingTime="25.00" waitingCount="2" stopTime="0.00" timeLoss="83.67" rerouteNo="0" devices="tripinfo_veh1_7" vType="DEFAULT_VEHTYPE" speedFactor="1.12" vaporized=""/>
    <tripinfo id="veh0_5" depart="25.00" departLane="230291072_0" departPos="5.10" departSpeed="0.00" departDelay="0.00" arrival="402.00" arrivalLane="-359409608_0" arrivalPos="135.48" arrivalSpeed="10.70" duration="377.00" routeLength="4528.47" waitingTime="56.00" waitingCount="2" stopTime="0.00" timeLoss="113.79" rerouteNo="0" devices="tripinfo_veh0_5" vType="DEFAULT_VEHTYPE" speedFactor="0.83" vaporized=""/>
    <tripinfo id="veh7_7" depart="25.00" departLane="757450364#0_0" departPos="5.10" departSpeed="0.00" departDelay="0.00" arrival="417.00" arrivalLane="-359409608_0" arrivalPos="135.48" arrivalSpeed="12.05" duration="392.00" routeLength="4303.71" waitingTime="117.00" waitingCount="4" stopTime="0.00" timeLoss="175.56" rerouteNo="0" devices="tripinfo_veh7_7" vType="DEFAULT_VEHTYPE" speedFactor="0.90" vaporized=""/>
    <tripinfo id="veh1_0" depart="28.00" departLane="-359409608_0" departPos="5.10" departSpeed="0.00" departDelay="3.00" arrival="509.00" arrivalLane="363373882#0_0" arrivalPos="12.94" arrivalSpeed="13.54" duration="481.00" routeLength="7525.56" waitingTime="52.00" waitingCount="3" stopTime="0.00" timeLoss="153.71" rerouteNo="0" devices="tripinfo_veh1_0" vType="DEFAULT_VEHTYPE" speedFactor="1.05" vaporized=""/>
    <tripinfo id="veh8_0" depart="49.00" departLane="-359409608_0" departPos="5.10" departSpeed="0.00" departDelay="24.00" arrival="516.00" arrivalLane="362985258#0_0" arrivalPos="52.30" arrivalSpeed="15.86" duration="467.00" routeLength="8746.76" waitingTime="37.00" waitingCount="1" stopTime="0.00" timeLoss="129.04" rerouteNo="0" devices="tripinfo_veh8_0" vType="DEFAULT_VEHTYPE" speedFactor="1.14" vaporized=""/>
</tripinfos>
