<?xml version="1.0" encoding="UTF-8"?>

<!-- generated on 06/05/21 09:09:47 by Eclipse SUMO sumo Version 1.8.0
<configuration xmlns:xsi="http://www.w3.org/2001/XMLSchema-instance" xsi:noNamespaceSchemaLocation="http://sumo.dlr.de/xsd/sumoConfiguration.xsd">

    <input>
        <net-file value="1\../BSD.net.xml"/>
        <route-files value="1\bsd_001.rou.xml"/>
        <additional-files value="1\dua_dump_001.add.xml"/>
    </input>

    <output>
        <summary-output value="1\summary_001.xml"/>
        <tripinfo-output value="1\tripinfo_001.xml"/>
    </output>

    <time>
        <begin value="0"/>
    </time>

    <processing>
        <route-steps value="200"/>
        <no-internal-links value="false"/>
        <time-to-teleport value="300"/>
        <time-to-teleport.highways value="0"/>
        <eager-insert value="false"/>
    </processing>

    <report>
        <verbose value="true"/>
        <no-warnings value="false"/>
        <log value="1\iteration_001.sumo.log"/>
        <no-step-log value="true"/>
    </report>

    <random_number>
        <random value="false"/>
    </random_number>

</configuration>
-->

<tripinfos xmlns:xsi="http://www.w3.org/2001/XMLSchema-instance" xsi:noNamespaceSchemaLocation="http://sumo.dlr.de/xsd/tripinfo_file.xsd">
    <tripinfo id="veh7_4" depart="25.00" departLane="560361514#10_0" departPos="5.10" departSpeed="0.00" departDelay="0.00" arrival="56.00" arrivalLane="359247300#0_0" arrivalPos="161.40" arrivalSpeed="15.77" duration="31.00" routeLength="458.92" waitingTime="0.00" waitingCount="0" stopTime="0.00" timeLoss="10.63" rerouteNo="0" devices="tripinfo_veh7_4" vType="DEFAULT_VEHTYPE" speedFactor="1.17" vaporized=""/>
    <tripinfo id="veh0_1" depart="25.00" departLane="562021790#0_0" departPos="5.10" departSpeed="0.00" departDelay="0.00" arrival="78.00" arrivalLane="359247813#2_0" arrivalPos="275.45" arrivalSpeed="12.93" duration="53.00" routeLength="638.95" waitingTime="0.00" waitingCount="0" stopTime="0.00" timeLoss="11.11" rerouteNo="0" devices="tripinfo_veh0_1" vType="DEFAULT_VEHTYPE" speedFactor="0.94" vaporized=""/>
    <tripinfo id="veh4_5" depart="25.00" departLane="562021794#1_0" departPos="5.10" departSpeed="0.00" departDelay="0.00" arrival="83.00" arrivalLane="398041366#1_0" arrivalPos="85.07" arrivalSpeed="15.76" duration="58.00" routeLength="974.34" waitingTime="0.00" waitingCount="0" stopTime="0.00" timeLoss="22.27" rerouteNo="0" devices="tripinfo_veh4_5" vType="DEFAULT_VEHTYPE" speedFactor="1.17" vaporized=""/>
    <tripinfo id="veh6_1" depart="25.00" departLane="154148013#6_0" departPos="5.10" departSpeed="0.00" departDelay="0.00" arrival="105.00" arrivalLane="560361514#6_0" arrivalPos="442.89" arrivalSpeed="29.45" duration="80.00" routeLength="2140.47" waitingTime="0.00" waitingCount="0" stopTime="0.00" timeLoss="9.08" rerouteNo="0" devices="tripinfo_veh6_1" vType="DEFAULT_VEHTYPE" speedFactor="1.09" vaporized=""/>
    <tripinfo id="veh8_1" depart="25.00" departLane="539383768#0_0" departPos="5.10" departSpeed="0.00" departDelay="0.00" arrival="120.00" arrivalLane="230291072_0" arrivalPos="179.75" arrivalSpeed="12.90" duration="95.00" routeLength="1109.67" waitingTime="0.00" waitingCount="0" stopTime="0.00" timeLoss="25.79" rerouteNo="0" devices="tripinfo_veh8_1" vType="DEFAULT_VEHTYPE" speedFactor="1.00" vaporized=""/>
    <tripinfo id="veh7_5" depart="25.00" departLane="359247300#0_0" departPos="5.10" departSpeed="0.00" departDelay="0.00" arrival="123.00" arrivalLane="-484446266#8_0" arrivalPos="248.85" arrivalSpeed="12.88" duration="98.00" routeLength="1589.43" waitingTime="0.00" waitingCount="0" stopTime="0.00" timeLoss="17.08" rerouteNo="0" devices="tripinfo_veh7_5" vType="DEFAULT_VEHTYPE" speedFactor="1.02" vaporized=""/>
    <tripinfo id="veh7_3" depart="25.00" departLane="359244608#0_0" departPos="5.10" departSpeed="0.00" departDelay="0.00" arrival="129.00" arrivalLane="560361514#10_0" arrivalPos="202.28" arrivalSpeed="22.80" duration="104.00" routeLength="1360.75" waitingTime="0.00" waitingCount="0" stopTime="0.00" timeLoss="26.59" rerouteNo="0" devices="tripinfo_veh7_3" vType="DEFAULT_VEHTYPE" speedFactor="0.85" vaporized=""/>
    <tripinfo id="veh1_1" depart="25.00" departLane="539383765#3_0" departPos="5.10" departSpeed="0.00" departDelay="0.00" arrival="133.00" arrivalLane="362347497#7_0" arrivalPos="149.91" arrivalSpeed="20.83" duration="108.00" routeLength="1756.35" waitingTime="0.00" waitingCount="0" stopTime="0.00" timeLoss="17.05" rerouteNo="0" devices="tripinfo_veh1_1" vType="DEFAULT_VEHTYPE" speedFactor="0.94" vaporized=""/>
    <tripinfo id="veh6_0" depart="43.00" departLane="-359409608_0" departPos="5.10" departSpeed="0.00" departDelay="18.00" arrival="138.00" arrivalLane="154148013#6_0" arrivalPos="327.33" arrivalSpeed="26.18" duration="95.00" routeLength="1252.42" waitingTime="0.00" waitingCount="0" stopTime="0.00" timeLoss="27.66" rerouteNo="0" devices="tripinfo_veh6_0" vType="DEFAULT_VEHTYPE" speedFactor="0.96" vaporized=""/>
    <tripinfo id="veh1_3" depart="25.00" departLane="359246993#0_0" departPos="5.10" departSpeed="0.00" departDelay="0.00" arrival="162.00" arrivalLane="562549612#1_0" arrivalPos="393.19" arrivalSpeed="14.66" duration="137.00" routeLength="2182.00" waitingTime="0.00" waitingCount="0" stopTime="0.00" timeLoss="31.82" rerouteNo="0" devices="tripinfo_veh1_3" vType="DEFAULT_VEHTYPE" speedFactor="1.09" vaporized=""/>
    <tripinfo id="veh3_4" depart="25.00" departLane="359244597#1_0" departPos="5.10" departSpeed="0.00" departDelay="0.00" arrival="162.00" arrivalLane="359247300#1_0" arrivalPos="219.61" arrivalSpeed="12.55" duration="137.00" routeLength="1620.60" waitingTime="0.00" waitingCount="0" stopTime="0.00" timeLoss="30.31" rerouteNo="0" devices="tripinfo_veh3_4" vType="DEFAULT_VEHTYPE" speedFactor="0.92" vaporized=""/>
    <tripinfo id="veh4_6" depart="25.00" departLane="398041366#1_0" departPos="5.10" departSpeed="0.00" departDelay="0.00" arrival="167.00" arrivalLane="-359409608_0" arrivalPos="135.48" arrivalSpeed="13.04" duration="142.00" routeLength="1695.34" waitingTime="10.00" waitingCount="1" stopTime="0.00" timeLoss="43.37" rerouteNo="0" devices="tripinfo_veh4_6" vType="DEFAULT_VEHTYPE" speedFactor="0.99" vaporized=""/>
    <tripinfo id="veh1_7" depart="25.00" departLane="562430406#8_0" departPos="5.10" departSpeed="0.00" departDelay="0.00" arrival="171.00" arrivalLane="-359409608_0" arrivalPos="135.48" arrivalSpeed="12.74" duration="146.00" routeLength="1822.75" waitingTime="7.00" waitingCount="1" stopTime="0.00" timeLoss="43.22" rerouteNo="0" devices="tripinfo_veh1_7" vType="DEFAULT_VEHTYPE" speedFactor="0.99" vaporized=""/>
    <tripinfo id="veh0_6" depart="25.00" departLane="-359408277#0_0" departPos="5.10" departSpeed="0.00" departDelay="0.00" arrival="173.00" arrivalLane="-359409608_0" arrivalPos="135.48" arrivalSpeed="13.47" duration="148.00" routeLength="2489.75" waitingTime="0.00" waitingCount="0" stopTime="0.00" timeLoss="35.09" rerouteNo="0" devices="tripinfo_veh0_6" vType="DEFAULT_VEHTYPE" speedFactor="1.05" vaporized=""/>
    <tripinfo id="veh2_2" depart="28.00" departLane="562430406#8_0" departPos="5.10" departSpeed="0.00" departDelay="3.00" arrival="173.00" arrivalLane="539383768#6_0" arrivalPos="45.63" arrivalSpeed="15.21" duration="145.00" routeLength="1665.59" waitingTime="0.00" waitingCount="0" stopTime="0.00" timeLoss="30.92" rerouteNo="0" devices="tripinfo_veh2_2" vType="DEFAULT_VEHTYPE" speedFactor="0.94" vaporized=""/>
    <tripinfo id="veh0_0" depart="25.00" departLane="-359409608_0" departPos="5.10" departSpeed="0.00" departDelay="0.00" arrival="206.00" arrivalLane="562021790#0_0" arrivalPos="53.64" arrivalSpeed="28.15" duration="181.00" routeLength="2971.04" waitingTime="16.00" waitingCount="1" stopTime="0.00" timeLoss="60.49" rerouteNo="0" devices="tripinfo_veh0_0" vType="DEFAULT_VEHTYPE" speedFactor="1.06" vaporized=""/>
    <tripinfo id="veh4_3" depart="25.00" departLane="154148014#2_0" departPos="5.10" departSpeed="0.00" departDelay="0.00" arrival="208.00" arrivalLane="539383762#7_0" arrivalPos="169.23" arrivalSpeed="15.50" duration="183.00" routeLength="3942.67" waitingTime="0.00" waitingCount="0" stopTime="0.00" timeLoss="40.08" rerouteNo="0" devices="tripinfo_veh4_3" vType="DEFAULT_VEHTYPE" speedFactor="1.15" vaporized=""/>
    <tripinfo id="veh5_4" depart="25.00" departLane="-675107653#5_0" departPos="5.10" departSpeed="0.00" departDelay="0.00" arrival="212.00" arrivalLane="539383767#1_0" arrivalPos="58.17" arrivalSpeed="11.73" duration="187.00" routeLength="2163.95" waitingTime="43.00" waitingCount="2" stopTime="0.00" timeLoss="80.76" rerouteNo="0" devices="tripinfo_veh5_4" vType="DEFAULT_VEHTYPE" speedFactor="0.90" vaporized=""/>
    <tripinfo id="veh0_3" depart="25.00" departLane="781684931#0_0" departPos="5.10" departSpeed="0.00" departDelay="0.00" arrival="233.00" arrivalLane="403676096#0_0" arrivalPos="281.18" arrivalSpeed="13.75" duration="208.00" routeLength="3549.87" waitingTime="0.00" waitingCount="0" stopTime="0.00" timeLoss="43.81" rerouteNo="0" devices="tripinfo_veh0_3" vType="DEFAULT_VEHTYPE" speedFactor="1.08" vaporized=""/>
    <tripinfo id="veh2_4" depart="25.00" departLane="233703186#0_0" departPos="5.10" departSpeed="0.00" departDelay="0.00" arrival="236.00" arrivalLane="754594908#4_1" arrivalPos="190.58" arrivalSpeed="27.97" duration="211.00" routeLength="3177.64" waitingTime="1.00" waitingCount="1" stopTime="0.00" timeLoss="52.89" rerouteNo="0" devices="tripinfo_veh2_4" vType="DEFAULT_VEHTYPE" speedFactor="1.16" vaporized=""/>
    <tripinfo id="veh1_6" depart="25.00" departLane="563587627_0" departPos="5.10" departSpeed="0.00" departDelay="0.00" arrival="240.00" arrivalLane="562430406#8_0" arrivalPos="392.55" arrivalSpeed="15.12" duration="215.00" routeLength="3567.10" waitingTime="0.00" waitingCount="0" stopTime="0.00" timeLoss="39.62" rerouteNo="0" devices="tripinfo_veh1_6" vType="DEFAULT_VEHTYPE" speedFactor="1.12" vaporized=""/>
    <tripinfo id="veh7_1" depart="25.00" departLane="233703205#1_0" departPos="5.10" departSpeed="0.00" departDelay="0.00" arrival="243.00" arrivalLane="-563587585#0_0" arrivalPos="28.41" arrivalSpeed="11.30" duration="218.00" routeLength="3595.40" waitingTime="0.00" waitingCount="0" stopTime="0.00" timeLoss="41.98" rerouteNo="0" devices="tripinfo_veh7_1" vType="DEFAULT_VEHTYPE" speedFactor="0.88" vaporized=""/>
    <tripinfo id="veh5_0" depart="40.00" departLane="-359409608_0" departPos="5.10" departSpeed="0.00" departDelay="15.00" arrival="251.00" arrivalLane="396051491#3_0" arrivalPos="141.12" arrivalSpeed="28.20" duration="211.00" routeLength="3705.71" waitingTime="0.00" waitingCount="0" stopTime="0.00" timeLoss="58.86" rerouteNo="0" devices="tripinfo_veh5_0" vType="DEFAULT_VEHTYPE" speedFactor="1.02" vaporized=""/>
    <tripinfo id="veh7_6" depart="25.00" departLane="-484446266#8_0" departPos="5.10" departSpeed="0.00" departDelay="0.00" arrival="251.00" arrivalLane="-359409608_0" arrivalPos="135.48" arrivalSpeed="14.33" duration="226.00" routeLength="2749.35" waitingTime="55.00" waitingCount="2" stopTime="0.00" timeLoss="99.02" rerouteNo="0" devices="tripinfo_veh7_6" vType="DEFAULT_VEHTYPE" speedFactor="1.10" vaporized=""/>
    <tripinfo id="veh5_5" depart="25.00" departLane="539383767#1_0" departPos="5.10" departSpeed="0.00" departDelay="0.00" arrival="257.00" arrivalLane="-359409608_0" arrivalPos="135.48" arrivalSpeed="13.45" duration="232.00" routeLength="2054.82" waitingTime="62.00" waitingCount="3" stopTime="0.00" timeLoss="111.94" rerouteNo="0" devices="tripinfo_veh5_5" vType="DEFAULT_VEHTYPE" speedFactor="1.03" vaporized=""/>
    <tripinfo id="veh2_6" depart="25.00" departLane="766136200_0" departPos="5.10" departSpeed="0.00" departDelay="0.00" arrival="260.00" arrivalLane="-359409608_0" arrivalPos="135.48" arrivalSpeed="13.69" duration="235.00" routeLength="3130.11" waitingTime="46.00" waitingCount="2" stopTime="0.00" timeLoss="99.83" rerouteNo="0" devices="tripinfo_veh2_6" vType="DEFAULT_VEHTYPE" speedFactor="1.01" vaporized=""/>
    <tripinfo id="veh4_4" depart="25.00" departLane="539383762#7_0" departPos="5.10" departSpeed="0.00" departDelay="0.00" arrival="264.00" arrivalLane="562021794#1_0" arrivalPos="11.24" arrivalSpeed="26.84" duration="239.00" routeLength="2249.09" waitingTime="107.00" waitingCount="2" stopTime="0.00" timeLoss="144.82" rerouteNo="0" devices="tripinfo_veh4_4" vType="DEFAULT_VEHTYPE" speedFactor="1.01" vaporized=""/>
    <tripinfo id="veh4_1" depart="25.00" departLane="362985244#7_0" departPos="5.10" departSpeed="0.00" departDelay="0.00" arrival="268.00" arrivalLane="-363359023#5_0" arrivalPos="55.81" arrivalSpeed="12.43" duration="243.00" routeLength="4483.17" waitingTime="0.00" waitingCount="0" stopTime="0.00" timeLoss="38.47" rerouteNo="0" devices="tripinfo_veh4_1" vType="DEFAULT_VEHTYPE" speedFactor="0.93" vaporized=""/>
    <tripinfo id="veh4_2" depart="25.00" departLane="-363359023#5_0" departPos="5.10" departSpeed="0.00" departDelay="0.00" arrival="273.00" arrivalLane="154148014#2_0" arrivalPos="6.55" arrivalSpeed="26.22" duration="248.00" routeLength="5033.11" waitingTime="0.00" waitingCount="0" stopTime="0.00" timeLoss="71.11" rerouteNo="0" devices="tripinfo_veh4_2" vType="DEFAULT_VEHTYPE" speedFactor="1.18" vaporized=""/>
    <tripinfo id="veh7_0" depart="46.00" departLane="-359409608_0" departPos="5.10" departSpeed="0.00" departDelay="21.00" arrival="275.00" arrivalLane="233703205#1_0" arrivalPos="81.35" arrivalSpeed="12.05" duration="229.00" routeLength="3647.79" waitingTime="0.00" waitingCount="0" stopTime="0.00" timeLoss="39.27" rerouteNo="0" devices="tripinfo_veh7_0" vType="DEFAULT_VEHTYPE" speedFactor="0.90" vaporized=""/>
    <tripinfo id="veh8_3" depart="25.00" departLane="358237489#0_0" departPos="5.10" departSpeed="0.00" departDelay="0.00" arrival="293.00" arrivalLane="676492822_0" arrivalPos="72.78" arrivalSpeed="8.92" duration="268.00" routeLength="4111.14" waitingTime="35.00" waitingCount="1" stopTime="0.00" timeLoss="100.92" rerouteNo="0" devices="tripinfo_veh8_3" vType="DEFAULT_VEHTYPE" speedFactor="1.14" vaporized=""/>
    <tripinfo id="veh7_2" depart="25.00" departLane="-563587585#0_0" departPos="5.10" departSpeed="0.00" departDelay="0.00" arrival="299.00" arrivalLane="359244608#0_0" arrivalPos="92.62" arrivalSpeed="10.66" duration="274.00" routeLength="4670.24" waitingTime="0.00" waitingCount="0" stopTime="0.00" timeLoss="49.73" rerouteNo="0" devices="tripinfo_veh7_2" vType="DEFAULT_VEHTYPE" speedFactor="0.85" vaporized=""/>
    <tripinfo id="veh1_4" depart="25.00" departLane="562549612#1_0" departPos="5.10" departSpeed="0.00" departDelay="0.00" arrival="302.00" arrivalLane="563175147#6_0" arrivalPos="123.61" arrivalSpeed="22.28" duration="277.00" routeLength="3996.13" waitingTime="43.00" waitingCount="2" stopTime="0.00" timeLoss="89.39" rerouteNo="0" devices="tripinfo_veh1_4" vType="DEFAULT_VEHTYPE" speedFactor="1.03" vaporized=""/>
    <tripinfo id="veh2_3" depart="25.00" departLane="539383768#6_0" departPos="5.10" departSpeed="0.00" departDelay="0.00" arrival="321.00" arrivalLane="233703186#0_0" arrivalPos="230.12" arrivalSpeed="12.67" duration="296.00" routeLength="3471.40" waitingTime="68.00" waitingCount="2" stopTime="0.00" timeLoss="114.23" rerouteNo="0" devices="tripinfo_veh2_3" vType="DEFAULT_VEHTYPE" speedFactor="0.94" vaporized=""/>
    <tripinfo id="veh3_3" depart="25.00" departLane="359408298#2_0" departPos="5.10" departSpeed="0.00" departDelay="0.00" arrival="324.00" arrivalLane="359244597#1_0" arrivalPos="33.77" arrivalSpeed="12.08" duration="299.00" routeLength="3906.97" waitingTime="24.00" waitingCount="1" stopTime="0.00" timeLoss="70.10" rerouteNo="0" devices="tripinfo_veh3_3" vType="DEFAULT_VEHTYPE" speedFactor="0.87" vaporized=""/>
    <tripinfo id="veh5_1" depart="25.00" departLane="396051491#3_0" departPos="5.10" departSpeed="0.00" departDelay="0.00" arrival="326.00" arrivalLane="757450364#0_0" arrivalPos="86.62" arrivalSpeed="20.57" duration="301.00" routeLength="6391.49" waitingTime="0.00" waitingCount="0" stopTime="0.00" timeLoss="45.09" rerouteNo="0" devices="tripinfo_veh5_1" vType="DEFAULT_VEHTYPE" speedFactor="0.97" vaporized=""/>
    <tripinfo id="veh2_5" depart="25.00" departLane="754594908#4_0" departPos="5.10" departSpeed="0.00" departDelay="0.00" arrival="343.00" arrivalLane="766136200_0" arrivalPos="53.47" arrivalSpeed="18.82" duration="318.00" routeLength="3278.84" waitingTime="134.00" waitingCount="6" stopTime="0.00" timeLoss="195.82" rerouteNo="0" devices="tripinfo_veh2_5" vType="DEFAULT_VEHTYPE" speedFactor="1.02" vaporized=""/>
    <tripinfo id="veh3_5" depart="25.00" departLane="359247300#1_0" departPos="5.10" departSpeed="0.00" departDelay="0.00" arrival="349.00" arrivalLane="-359409608_0" arrivalPos="135.48" arrivalSpeed="12.00" duration="324.00" routeLength="3871.70" waitingTime="81.00" waitingCount="3" stopTime="0.00" timeLoss="128.68" rerouteNo="0" devices="tripinfo_veh3_5" vType="DEFAULT_VEHTYPE" speedFactor="0.95" vaporized=""/>
    <tripinfo id="veh8_4" depart="25.00" departLane="676492822_0" departPos="5.10" departSpeed="0.00" departDelay="0.00" arrival="351.00" arrivalLane="-359409608_0" arrivalPos="135.48" arrivalSpeed="12.97" duration="326.00" routeLength="3553.10" waitingTime="76.00" waitingCount="3" stopTime="0.00" timeLoss="145.40" rerouteNo="0" devices="tripinfo_veh8_4" vType="DEFAULT_VEHTYPE" speedFactor="1.02" vaporized=""/>
    <tripinfo id="veh1_2" depart="25.00" departLane="362347497#7_0" departPos="5.10" departSpeed="0.00" departDelay="0.00" arrival="356.00" arrivalLane="359246993#0_0" arrivalPos="70.96" arrivalSpeed="11.12" duration="331.00" routeLength="4259.60" waitingTime="75.00" waitingCount="2" stopTime="0.00" timeLoss="123.89" rerouteNo="0" devices="tripinfo_veh1_2" vType="DEFAULT_VEHTYPE" speedFactor="0.86" vaporized=""/>
    <tripinfo id="veh5_2" depart="25.00" departLane="757450364#0_0" departPos="5.10" departSpeed="0.00" departDelay="0.00" arrival="402.00" arrivalLane="539383768#2_0" arrivalPos="239.65" arrivalSpeed="31.89" duration="377.00" routeLength="5158.95" waitingTime="146.00" waitingCount="4" stopTime="0.00" timeLoss="202.27" rerouteNo="0" devices="tripinfo_veh5_2" vType="DEFAULT_VEHTYPE" speedFactor="1.18" vaporized=""/>
    <tripinfo id="veh0_4" depart="25.00" departLane="403676096#0_0" departPos="5.10" departSpeed="0.00" departDelay="0.00" arrival="416.00" arrivalLane="363373882#0_0" arrivalPos="12.94" arrivalSpeed="14.12" duration="391.00" routeLength="5081.65" waitingTime="93.00" waitingCount="3" stopTime="0.00" timeLoss="159.46" rerouteNo="0" devices="tripinfo_veh0_4" vType="DEFAULT_VEHTYPE" speedFactor="1.03" vaporized=""/>
    <tripinfo id="veh4_0" depart="37.00" departLane="-359409608_0" departPos="5.10" departSpeed="0.00" departDelay="12.00" arrival="441.00" arrivalLane="362985244#7_0" arrivalPos="27.72" arrivalSpeed="15.69" duration="404.00" routeLength="7645.10" waitingTime="39.00" waitingCount="1" stopTime="0.00" timeLoss="134.90" rerouteNo="0" devices="tripinfo_veh4_0" vType="DEFAULT_VEHTYPE" speedFactor="1.13" vaporized=""/>
    <tripinfo id="veh6_3" depart="25.00" departLane="168328152#0_0" departPos="5.10" departSpeed="0.00" departDelay="0.00" arrival="445.00" arrivalLane="479199742#1_0" arrivalPos="409.63" arrivalSpeed="22.87" duration="420.00" routeLength="6984.58" waitingTime="87.00" waitingCount="2" stopTime="0.00" timeLoss="148.78" rerouteNo="0" devices="tripinfo_veh6_3" vType="DEFAULT_VEHTYPE" speedFactor="1.04" vaporized=""/>
    <tripinfo id="veh3_2" depart="25.00" departLane="729152092#2_0" departPos="5.10" departSpeed="0.00" departDelay="0.00" arrival="448.00" arrivalLane="359408298#2_0" arrivalPos="137.25" arrivalSpeed="11.44" duration="423.00" routeLength="5425.81" waitingTime="79.00" waitingCount="3" stopTime="0.00" timeLoss="126.25" rerouteNo="0" devices="tripinfo_veh3_2" vType="DEFAULT_VEHTYPE" speedFactor="0.83" vaporized=""/>
    <tripinfo id="veh2_0" depart="31.00" departLane="-359409608_0" departPos="5.10" departSpeed="0.00" departDelay="6.00" arrival="515.00" arrivalLane="-362985261#6_0" arrivalPos="61.07" arrivalSpeed="11.70" duration="484.00" routeLength="8061.59" waitingTime="39.00" waitingCount="2" stopTime="0.00" timeLoss="121.50" rerouteNo="0" devices="tripinfo_veh2_0" vType="DEFAULT_VEHTYPE" speedFactor="0.93" vaporized=""/>
    <tripinfo id="veh3_0" depart="34.00" departLane="-359409608_0" departPos="5.10" departSpeed="0.00" departDelay="9.00" arrival="551.00" arrivalLane="362985258#0_0" arrivalPos="52.30" arrivalSpeed="12.58" duration="517.00" routeLength="8746.76" waitingTime="38.00" waitingCount="1" stopTime="0.00" timeLoss="122.69" rerouteNo="0" devices="tripinfo_veh3_0" vType="DEFAULT_VEHTYPE" speedFactor="0.98" vaporized=""/>
    <tripinfo id="veh3_1" depart="25.00" departLane="362985258#0_0" departPos="5.10" departSpeed="0.00" departDelay="0.00" arrival="557.00" arrivalLane="729152092#2_0" arrivalPos="908.74" arrivalSpeed="19.67" duration="532.00" routeLength="9171.43" waitingTime="26.00" waitingCount="1" stopTime="0.00" timeLoss="94.15" rerouteNo="0" devices="tripinfo_veh3_1" vType="DEFAULT_VEHTYPE" speedFactor="0.89" vaporized=""/>
    <tripinfo id="veh6_5" depart="25.00" departLane="363002237#4_0" departPos="5.10" departSpeed="0.00" departDelay="0.00" arrival="559.00" arrivalLane="-359409608_0" arrivalPos="135.48" arrivalSpeed="12.91" duration="534.00" routeLength="3956.36" waitingTime="308.00" waitingCount="2" stopTime="0.00" timeLoss="352.84" rerouteNo="0" devices="tripinfo_veh6_5" vType="DEFAULT_VEHTYPE" speedFactor="1.00" vaporized=""/>
    <tripinfo id="veh2_1" depart="25.00" departLane="-362985261#6_0" departPos="5.10" departSpeed="0.00" departDelay="0.00" arrival="568.00" arrivalLane="562430406#8_0" arrivalPos="392.55" arrivalSpeed="11.68" duration="543.00" routeLength="5882.85" waitingTime="172.00" waitingCount="3" stopTime="0.00" timeLoss="231.53" rerouteNo="0" devices="tripinfo_veh2_1" vType="DEFAULT_VEHTYPE" speedFactor="0.88" vaporized=""/>
    <tripinfo id="veh1_0" depart="28.00" departLane="-359409608_0" departPos="5.10" departSpeed="0.00" departDelay="3.00" arrival="627.00" arrivalLane="539383765#3_0" arrivalPos="264.82" arrivalSpeed="11.48" duration="599.00" routeLength="3322.53" waitingTime="342.00" waitingCount="4" stopTime="0.00" timeLoss="412.56" rerouteNo="0" devices="tripinfo_veh1_0" vType="DEFAULT_VEHTYPE" speedFactor="0.89" vaporized=""/>
    <tripinfo id="veh0_5" depart="25.00" departLane="363373882#0_0" departPos="5.10" departSpeed="0.00" departDelay="0.00" arrival="645.00" arrivalLane="-359408277#0_0" arrivalPos="175.18" arrivalSpeed="10.50" duration="620.00" routeLength="7895.68" waitingTime="127.00" waitingCount="3" stopTime="0.00" timeLoss="208.62" rerouteNo="0" devices="tripinfo_veh0_5" vType="DEFAULT_VEHTYPE" speedFactor="0.83" vaporized=""/>
    <tripinfo id="veh6_2" depart="25.00" departLane="560361514#6_0" departPos="5.10" departSpeed="0.00" departDelay="0.00" arrival="652.00" arrivalLane="168328152#0_0" arrivalPos="48.55" arrivalSpeed="14.06" duration="627.00" routeLength="4567.55" waitingTime="401.00" waitingCount="4" stopTime="0.00" timeLoss="460.01" rerouteNo="0" devices="tripinfo_veh6_2" vType="DEFAULT_VEHTYPE" speedFactor="1.04" vaporized=""/>
    <tripinfo id="veh5_3" depart="25.00" departLane="539383768#2_0" departPos="5.10" departSpeed="0.00" departDelay="0.00" arrival="654.00" arrivalLane="-675107653#5_0" arrivalPos="68.60" arrivalSpeed="14.26" duration="629.00" routeLength="3503.39" waitingTime="433.00" waitingCount="8" stopTime="0.00" timeLoss="502.56" rerouteNo="0" devices="tripinfo_veh5_3" vType="DEFAULT_VEHTYPE" speedFactor="1.10" vaporized=""/>
    <tripinfo id="veh1_5" depart="25.00" departLane="563175147#6_0" departPos="5.10" departSpeed="0.00" departDelay="0.00" arrival="655.00" arrivalLane="563587627_0" arrivalPos="120.78" arrivalSpeed="13.34" duration="630.00" routeLength="4579.92" waitingTime="368.00" waitingCount="5" stopTime="0.00" timeLoss="430.88" rerouteNo="0" devices="tripinfo_veh1_5" vType="DEFAULT_VEHTYPE" speedFactor="1.05" vaporized=""/>
    <tripinfo id="veh8_0" depart="49.00" departLane="-359409608_0" departPos="5.10" departSpeed="0.00" departDelay="24.00" arrival="669.00" arrivalLane="539383768#0_0" arrivalPos="201.66" arrivalSpeed="26.58" duration="620.00" routeLength="4235.85" waitingTime="380.00" waitingCount="3" stopTime="0.00" timeLoss="443.38" rerouteNo="0" devices="tripinfo_veh8_0" vType="DEFAULT_VEHTYPE" speedFactor="1.00" vaporized=""/>
    <tripinfo id="veh6_4" depart="25.00" departLane="479199742#1_0" departPos="5.10" departSpeed="0.00" departDelay="0.00" arrival="672.00" arrivalLane="363002237#4_0" arrivalPos="45.42" arrivalSpeed="14.13" duration="647.00" routeLength="9393.15" waitingTime="201.00" waitingCount="7" stopTime="0.00" timeLoss="292.38" rerouteNo="0" devices="tripinfo_veh6_4" vType="DEFAULT_VEHTYPE" speedFactor="1.09" vaporized=""/>
    <tripinfo id="veh0_2" depart="25.00" departLane="359247813#2_0" departPos="5.10" departSpeed="0.00" departDelay="0.00" arrival="807.00" arrivalLane="781684931#0_0" arrivalPos="57.29" arrivalSpeed="13.97" duration="782.00" routeLength="7183.82" waitingTime="412.00" waitingCount="6" stopTime="0.00" timeLoss="489.99" rerouteNo="0" devices="tripinfo_veh0_2" vType="DEFAULT_VEHTYPE" speedFactor="1.01" vaporized=""/>
    <tripinfo id="veh8_2" depart="25.00" departLane="230291072_0" departPos="5.10" departSpeed="0.00" departDelay="0.00" arrival="824.00" arrivalLane="358237489#0_0" arrivalPos="86.17" arrivalSpeed="11.46" duration="799.00" routeLength="7043.68" waitingTime="355.00" waitingCount="5" stopTime="0.00" timeLoss="437.18" rerouteNo="0" devices="tripinfo_veh8_2" vType="DEFAULT_VEHTYPE" speedFactor="0.90" vaporized=""/>
</tripinfos>
