<?xml version="1.0" encoding="UTF-8"?>

<!-- generated on 06/25/21 10:13:14 by Eclipse SUMO sumo Version 1.8.0
<configuration xmlns:xsi="http://www.w3.org/2001/XMLSchema-instance" xsi:noNamespaceSchemaLocation="http://sumo.dlr.de/xsd/sumoConfiguration.xsd">

    <input>
        <net-file value="4\../BSD.net.xml"/>
        <route-files value="4\bsd_004.rou.xml"/>
        <additional-files value="4\dua_dump_004.add.xml"/>
    </input>

    <output>
        <summary-output value="4\summary_004.xml"/>
        <tripinfo-output value="4\tripinfo_004.xml"/>
    </output>

    <time>
        <begin value="0"/>
    </time>

    <processing>
        <route-steps value="200"/>
        <no-internal-links value="false"/>
        <time-to-teleport value="300"/>
        <time-to-teleport.highways value="0"/>
        <eager-insert value="false"/>
    </processing>

    <report>
        <verbose value="true"/>
        <no-warnings value="false"/>
        <log value="4\iteration_004.sumo.log"/>
        <no-step-log value="true"/>
    </report>

    <random_number>
        <random value="false"/>
    </random_number>

</configuration>
-->

<tripinfos xmlns:xsi="http://www.w3.org/2001/XMLSchema-instance" xsi:noNamespaceSchemaLocation="http://sumo.dlr.de/xsd/tripinfo_file.xsd">
    <tripinfo id="rute_8_4" depart="37.00" departLane="560361514#10_0" departPos="5.10" departSpeed="0.00" departDelay="12.00" arrival="63.00" arrivalLane="154148014#2_0" arrivalPos="6.55" arrivalSpeed="24.46" duration="26.00" routeLength="464.98" waitingTime="0.00" waitingCount="0" stopTime="0.00" timeLoss="9.13" rerouteNo="0" devices="tripinfo_rute_8_4" vType="DEFAULT_VEHTYPE" speedFactor="1.06" vaporized=""/>
    <tripinfo id="rute_4_8" depart="46.00" departLane="154148014#2_0" departPos="5.10" departSpeed="0.00" departDelay="21.00" arrival="76.00" arrivalLane="560361514#10_0" arrivalPos="202.28" arrivalSpeed="24.40" duration="30.00" routeLength="371.08" waitingTime="0.00" waitingCount="0" stopTime="0.00" timeLoss="13.25" rerouteNo="0" devices="tripinfo_rute_4_8" vType="DEFAULT_VEHTYPE" speedFactor="0.91" vaporized=""/>
    <tripinfo id="rute_11_10" depart="55.00" departLane="154148013#6_0" departPos="5.10" departSpeed="0.00" departDelay="30.00" arrival="80.00" arrivalLane="562021794#1_0" arrivalPos="11.24" arrivalSpeed="25.02" duration="25.00" routeLength="474.47" waitingTime="0.00" waitingCount="0" stopTime="0.00" timeLoss="5.80" rerouteNo="0" devices="tripinfo_rute_11_10" vType="DEFAULT_VEHTYPE" speedFactor="0.92" vaporized=""/>
    <tripinfo id="rute_3_4" depart="34.00" departLane="359246993#0_0" departPos="5.10" departSpeed="0.00" departDelay="9.00" arrival="82.00" arrivalLane="154148014#2_0" arrivalPos="6.55" arrivalSpeed="20.10" duration="48.00" routeLength="612.76" waitingTime="0.00" waitingCount="0" stopTime="0.00" timeLoss="17.28" rerouteNo="0" devices="tripinfo_rute_3_4" vType="DEFAULT_VEHTYPE" speedFactor="0.88" vaporized=""/>
    <tripinfo id="rute_12_13" depart="61.00" departLane="754594908#4_0" departPos="5.10" departSpeed="0.00" departDelay="36.00" arrival="94.00" arrivalLane="539383768#6_0" arrivalPos="45.63" arrivalSpeed="16.78" duration="33.00" routeLength="322.91" waitingTime="1.00" waitingCount="1" stopTime="0.00" timeLoss="20.21" rerouteNo="0" devices="tripinfo_rute_12_13" vType="DEFAULT_VEHTYPE" speedFactor="1.10" vaporized=""/>
    <tripinfo id="rute_4_1" depart="28.00" departLane="154148014#2_0" departPos="5.10" departSpeed="0.00" departDelay="3.00" arrival="95.00" arrivalLane="-484446266#8_0" arrivalPos="248.85" arrivalSpeed="5.02" duration="67.00" routeLength="1090.18" waitingTime="0.00" waitingCount="0" stopTime="0.00" timeLoss="22.83" rerouteNo="0" devices="tripinfo_rute_4_1" vType="DEFAULT_VEHTYPE" speedFactor="1.12" vaporized=""/>
    <tripinfo id="rute_4_2" depart="31.00" departLane="154148014#2_0" departPos="5.10" departSpeed="0.00" departDelay="6.00" arrival="96.00" arrivalLane="-675107653#5_0" arrivalPos="68.60" arrivalSpeed="12.91" duration="65.00" routeLength="1190.24" waitingTime="0.00" waitingCount="0" stopTime="0.00" timeLoss="13.40" rerouteNo="0" devices="tripinfo_rute_4_2" vType="DEFAULT_VEHTYPE" speedFactor="1.02" vaporized=""/>
    <tripinfo id="rute_15_14" depart="67.00" departLane="539383768#0_0" departPos="5.10" departSpeed="0.00" departDelay="42.00" arrival="98.00" arrivalLane="539383768#2_1" arrivalPos="239.65" arrivalSpeed="30.35" duration="31.00" routeLength="729.87" waitingTime="0.00" waitingCount="0" stopTime="0.00" timeLoss="7.22" rerouteNo="0" devices="tripinfo_rute_15_14" vType="DEFAULT_VEHTYPE" speedFactor="1.13" vaporized=""/>
    <tripinfo id="rute_9_1" depart="27.00" departLane="560361514#6_0" departPos="5.10" departSpeed="0.00" departDelay="2.00" arrival="101.00" arrivalLane="-484446266#8_0" arrivalPos="248.85" arrivalSpeed="7.77" duration="74.00" routeLength="1240.02" waitingTime="0.00" waitingCount="0" stopTime="0.00" timeLoss="23.18" rerouteNo="0" devices="tripinfo_rute_9_1" vType="DEFAULT_VEHTYPE" speedFactor="1.12" vaporized=""/>
    <tripinfo id="rute_10_2" depart="31.00" departLane="562021794#1_0" departPos="5.10" departSpeed="0.00" departDelay="6.00" arrival="102.00" arrivalLane="-675107653#5_0" arrivalPos="68.60" arrivalSpeed="13.86" duration="71.00" routeLength="1290.70" waitingTime="0.00" waitingCount="0" stopTime="0.00" timeLoss="17.93" rerouteNo="0" devices="tripinfo_rute_10_2" vType="DEFAULT_VEHTYPE" speedFactor="1.07" vaporized=""/>
    <tripinfo id="rute_8_1" depart="28.00" departLane="560361514#10_0" departPos="5.10" departSpeed="0.00" departDelay="3.00" arrival="107.00" arrivalLane="-484446266#8_0" arrivalPos="248.85" arrivalSpeed="14.65" duration="79.00" routeLength="1552.08" waitingTime="0.00" waitingCount="0" stopTime="0.00" timeLoss="19.01" rerouteNo="0" devices="tripinfo_rute_8_1" vType="DEFAULT_VEHTYPE" speedFactor="1.10" vaporized=""/>
    <tripinfo id="rute_14_13" depart="68.00" departLane="539383768#2_0" departPos="5.10" departSpeed="0.00" departDelay="43.00" arrival="107.00" arrivalLane="539383768#6_1" arrivalPos="45.63" arrivalSpeed="22.62" duration="39.00" routeLength="831.19" waitingTime="0.00" waitingCount="0" stopTime="0.00" timeLoss="10.69" rerouteNo="0" devices="tripinfo_rute_14_13" vType="DEFAULT_VEHTYPE" speedFactor="1.06" vaporized=""/>
    <tripinfo id="rute_3_8" depart="46.00" departLane="359246993#0_0" departPos="5.10" departSpeed="0.00" departDelay="21.00" arrival="114.00" arrivalLane="560361514#10_1" arrivalPos="202.28" arrivalSpeed="27.89" duration="68.00" routeLength="344.96" waitingTime="21.00" waitingCount="2" stopTime="0.00" timeLoss="50.93" rerouteNo="0" devices="tripinfo_rute_3_8" vType="DEFAULT_VEHTYPE" speedFactor="1.02" vaporized=""/>
    <tripinfo id="rute_4_9" depart="49.00" departLane="154148014#2_0" departPos="5.10" departSpeed="0.00" departDelay="24.00" arrival="115.00" arrivalLane="560361514#6_1" arrivalPos="442.89" arrivalSpeed="28.39" duration="66.00" routeLength="1205.99" waitingTime="0.00" waitingCount="0" stopTime="0.00" timeLoss="21.89" rerouteNo="0" devices="tripinfo_rute_4_9" vType="DEFAULT_VEHTYPE" speedFactor="1.04" vaporized=""/>
    <tripinfo id="rute_9_8" depart="49.00" departLane="560361514#6_0" departPos="5.10" departSpeed="0.00" departDelay="24.00" arrival="116.00" arrivalLane="560361514#10_1" arrivalPos="202.28" arrivalSpeed="30.32" duration="67.00" routeLength="786.44" waitingTime="19.00" waitingCount="2" stopTime="0.00" timeLoss="41.68" rerouteNo="0" devices="tripinfo_rute_9_8" vType="DEFAULT_VEHTYPE" speedFactor="1.13" vaporized=""/>
    <tripinfo id="rute_8_2" depart="31.00" departLane="560361514#10_0" departPos="5.10" departSpeed="0.00" departDelay="6.00" arrival="119.00" arrivalLane="-675107653#5_0" arrivalPos="68.60" arrivalSpeed="13.08" duration="88.00" routeLength="1652.14" waitingTime="0.00" waitingCount="0" stopTime="0.00" timeLoss="21.47" rerouteNo="0" devices="tripinfo_rute_8_2" vType="DEFAULT_VEHTYPE" speedFactor="1.03" vaporized=""/>
    <tripinfo id="rute_9_2" depart="30.00" departLane="560361514#6_0" departPos="5.10" departSpeed="0.00" departDelay="5.00" arrival="124.00" arrivalLane="-675107653#5_0" arrivalPos="68.60" arrivalSpeed="13.10" duration="94.00" routeLength="1340.08" waitingTime="13.00" waitingCount="1" stopTime="0.00" timeLoss="36.23" rerouteNo="0" devices="tripinfo_rute_9_2" vType="DEFAULT_VEHTYPE" speedFactor="1.02" vaporized=""/>
    <tripinfo id="rute_6_12" depart="58.00" departLane="539383767#1_0" departPos="5.10" departSpeed="0.00" departDelay="33.00" arrival="125.00" arrivalLane="754594908#4_1" arrivalPos="190.58" arrivalSpeed="25.58" duration="67.00" routeLength="763.47" waitingTime="0.00" waitingCount="0" stopTime="0.00" timeLoss="14.10" rerouteNo="0" devices="tripinfo_rute_6_12" vType="DEFAULT_VEHTYPE" speedFactor="0.96" vaporized=""/>
    <tripinfo id="rute_10_1" depart="28.00" departLane="562021794#1_0" departPos="5.10" departSpeed="0.00" departDelay="3.00" arrival="127.00" arrivalLane="-484446266#8_0" arrivalPos="248.85" arrivalSpeed="13.22" duration="99.00" routeLength="1560.88" waitingTime="8.00" waitingCount="2" stopTime="0.00" timeLoss="31.14" rerouteNo="0" devices="tripinfo_rute_10_1" vType="DEFAULT_VEHTYPE" speedFactor="1.00" vaporized=""/>
    <tripinfo id="rute_8_9" depart="49.00" departLane="560361514#10_0" departPos="5.10" departSpeed="0.00" departDelay="24.00" arrival="129.00" arrivalLane="560361514#6_1" arrivalPos="442.89" arrivalSpeed="27.12" duration="80.00" routeLength="1667.89" waitingTime="0.00" waitingCount="0" stopTime="0.00" timeLoss="24.39" rerouteNo="0" devices="tripinfo_rute_8_9" vType="DEFAULT_VEHTYPE" speedFactor="1.12" vaporized=""/>
    <tripinfo id="rute_9_4" depart="36.00" departLane="560361514#6_0" departPos="5.10" departSpeed="0.00" departDelay="11.00" arrival="135.00" arrivalLane="154148014#2_0" arrivalPos="6.55" arrivalSpeed="24.66" duration="99.00" routeLength="1054.24" waitingTime="25.00" waitingCount="3" stopTime="0.00" timeLoss="58.25" rerouteNo="0" devices="tripinfo_rute_9_4" vType="DEFAULT_VEHTYPE" speedFactor="0.95" vaporized=""/>
    <tripinfo id="rute_10_4" depart="37.00" departLane="562021794#1_0" departPos="5.10" departSpeed="0.00" departDelay="12.00" arrival="136.00" arrivalLane="154148014#2_0" arrivalPos="6.55" arrivalSpeed="22.72" duration="99.00" routeLength="2288.59" waitingTime="0.00" waitingCount="0" stopTime="0.00" timeLoss="20.65" rerouteNo="0" devices="tripinfo_rute_10_4" vType="DEFAULT_VEHTYPE" speedFactor="1.06" vaporized=""/>
    <tripinfo id="rute_11_1" depart="28.00" departLane="154148013#6_0" departPos="5.10" departSpeed="0.00" departDelay="3.00" arrival="136.00" arrivalLane="-484446266#8_0" arrivalPos="248.85" arrivalSpeed="7.15" duration="108.00" routeLength="2029.21" waitingTime="0.00" waitingCount="0" stopTime="0.00" timeLoss="24.04" rerouteNo="0" devices="tripinfo_rute_11_1" vType="DEFAULT_VEHTYPE" speedFactor="1.00" vaporized=""/>
    <tripinfo id="rute_9_3" depart="33.00" departLane="560361514#6_0" departPos="5.10" departSpeed="0.00" departDelay="8.00" arrival="137.00" arrivalLane="359246993#0_0" arrivalPos="70.96" arrivalSpeed="5.83" duration="104.00" routeLength="890.89" waitingTime="16.00" waitingCount="2" stopTime="0.00" timeLoss="54.37" rerouteNo="0" devices="tripinfo_rute_9_3" vType="DEFAULT_VEHTYPE" speedFactor="1.00" vaporized=""/>
    <tripinfo id="rute_15_5" depart="40.00" departLane="539383768#0_0" departPos="5.10" departSpeed="0.00" departDelay="15.00" arrival="138.00" arrivalLane="230291072_0" arrivalPos="179.75" arrivalSpeed="14.34" duration="98.00" routeLength="1109.67" waitingTime="1.00" waitingCount="1" stopTime="0.00" timeLoss="31.59" rerouteNo="0" devices="tripinfo_rute_15_5" vType="DEFAULT_VEHTYPE" speedFactor="1.04" vaporized=""/>
    <tripinfo id="rute_4_3" depart="34.00" departLane="154148014#2_0" departPos="5.10" departSpeed="0.00" departDelay="9.00" arrival="139.00" arrivalLane="359246993#0_0" arrivalPos="70.96" arrivalSpeed="7.46" duration="105.00" routeLength="748.89" waitingTime="15.00" waitingCount="3" stopTime="0.00" timeLoss="58.25" rerouteNo="0" devices="tripinfo_rute_4_3" vType="DEFAULT_VEHTYPE" speedFactor="0.99" vaporized=""/>
    <tripinfo id="rute_8_3" depart="34.00" departLane="560361514#10_0" departPos="5.10" departSpeed="0.00" departDelay="9.00" arrival="141.00" arrivalLane="359246993#0_0" arrivalPos="70.96" arrivalSpeed="9.60" duration="107.00" routeLength="1212.42" waitingTime="1.00" waitingCount="1" stopTime="0.00" timeLoss="44.62" rerouteNo="0" devices="tripinfo_rute_8_3" vType="DEFAULT_VEHTYPE" speedFactor="1.02" vaporized=""/>
    <tripinfo id="rute_1_2" depart="28.00" departLane="-484446266#8_0" departPos="5.10" departSpeed="0.00" departDelay="3.00" arrival="142.00" arrivalLane="-675107653#5_0" arrivalPos="68.60" arrivalSpeed="11.79" duration="114.00" routeLength="852.46" waitingTime="26.00" waitingCount="1" stopTime="0.00" timeLoss="46.54" rerouteNo="0" devices="tripinfo_rute_1_2" vType="DEFAULT_VEHTYPE" speedFactor="0.88" vaporized=""/>
    <tripinfo id="rute_15_4" depart="37.00" departLane="539383768#0_0" departPos="5.10" departSpeed="0.00" departDelay="12.00" arrival="145.00" arrivalLane="154148014#2_0" arrivalPos="6.55" arrivalSpeed="21.70" duration="108.00" routeLength="1967.39" waitingTime="0.00" waitingCount="0" stopTime="0.00" timeLoss="32.75" rerouteNo="0" devices="tripinfo_rute_15_4" vType="DEFAULT_VEHTYPE" speedFactor="0.99" vaporized=""/>
    <tripinfo id="rute_11_9" depart="52.00" departLane="154148013#6_0" departPos="5.10" departSpeed="0.00" departDelay="27.00" arrival="146.00" arrivalLane="560361514#6_1" arrivalPos="442.89" arrivalSpeed="26.22" duration="94.00" routeLength="2140.47" waitingTime="0.00" waitingCount="0" stopTime="0.00" timeLoss="13.20" rerouteNo="0" devices="tripinfo_rute_11_9" vType="DEFAULT_VEHTYPE" speedFactor="0.96" vaporized=""/>
    <tripinfo id="rute_0_11" depart="55.00" departLane="-359409608_0" departPos="5.10" departSpeed="0.00" departDelay="30.00" arrival="148.00" arrivalLane="154148013#6_1" arrivalPos="327.33" arrivalSpeed="27.96" duration="93.00" routeLength="1252.42" waitingTime="0.00" waitingCount="0" stopTime="0.00" timeLoss="33.05" rerouteNo="0" devices="tripinfo_rute_0_11" vType="DEFAULT_VEHTYPE" speedFactor="1.09" vaporized=""/>
    <tripinfo id="rute_10_9" depart="65.00" departLane="562021794#1_0" departPos="5.10" departSpeed="0.00" departDelay="40.00" arrival="149.00" arrivalLane="560361514#6_1" arrivalPos="442.89" arrivalSpeed="29.24" duration="84.00" routeLength="1672.14" waitingTime="0.00" waitingCount="0" stopTime="0.00" timeLoss="30.99" rerouteNo="0" devices="tripinfo_rute_10_9" vType="DEFAULT_VEHTYPE" speedFactor="1.14" vaporized=""/>
    <tripinfo id="rute_3_1" depart="28.00" departLane="359246993#0_0" departPos="5.10" departSpeed="0.00" departDelay="3.00" arrival="150.00" arrivalLane="-484446266#8_0" arrivalPos="248.85" arrivalSpeed="12.69" duration="122.00" routeLength="1070.99" waitingTime="37.00" waitingCount="2" stopTime="0.00" timeLoss="66.44" rerouteNo="0" devices="tripinfo_rute_3_1" vType="DEFAULT_VEHTYPE" speedFactor="1.00" vaporized=""/>
    <tripinfo id="rute_12_14" depart="64.00" departLane="754594908#4_0" departPos="5.10" departSpeed="0.00" departDelay="39.00" arrival="150.00" arrivalLane="539383768#2_0" arrivalPos="239.65" arrivalSpeed="29.31" duration="86.00" routeLength="1839.62" waitingTime="0.00" waitingCount="0" stopTime="0.00" timeLoss="21.12" rerouteNo="0" devices="tripinfo_rute_12_14" vType="DEFAULT_VEHTYPE" speedFactor="1.07" vaporized=""/>
    <tripinfo id="rute_12_15" depart="67.00" departLane="754594908#4_0" departPos="5.10" departSpeed="0.00" departDelay="42.00" arrival="150.00" arrivalLane="539383768#0_0" arrivalPos="201.66" arrivalSpeed="26.74" duration="83.00" routeLength="1779.08" waitingTime="0.00" waitingCount="0" stopTime="0.00" timeLoss="17.03" rerouteNo="0" devices="tripinfo_rute_12_15" vType="DEFAULT_VEHTYPE" speedFactor="1.00" vaporized=""/>
    <tripinfo id="rute_11_8" depart="49.00" departLane="154148013#6_0" departPos="5.10" departSpeed="0.00" departDelay="24.00" arrival="151.00" arrivalLane="560361514#10_1" arrivalPos="202.28" arrivalSpeed="31.34" duration="102.00" routeLength="2489.12" waitingTime="0.00" waitingCount="0" stopTime="0.00" timeLoss="22.64" rerouteNo="0" devices="tripinfo_rute_11_8" vType="DEFAULT_VEHTYPE" speedFactor="1.14" vaporized=""/>
    <tripinfo id="rute_11_2" depart="31.00" departLane="154148013#6_0" departPos="5.10" departSpeed="0.00" departDelay="6.00" arrival="152.00" arrivalLane="-675107653#5_0" arrivalPos="68.60" arrivalSpeed="14.27" duration="121.00" routeLength="1759.03" waitingTime="28.00" waitingCount="1" stopTime="0.00" timeLoss="49.43" rerouteNo="0" devices="tripinfo_rute_11_2" vType="DEFAULT_VEHTYPE" speedFactor="1.03" vaporized=""/>
    <tripinfo id="rute_11_4" depart="37.00" departLane="154148013#6_0" departPos="5.10" departSpeed="0.00" departDelay="12.00" arrival="155.00" arrivalLane="154148014#2_0" arrivalPos="6.55" arrivalSpeed="21.45" duration="118.00" routeLength="2756.92" waitingTime="0.00" waitingCount="0" stopTime="0.00" timeLoss="11.40" rerouteNo="0" devices="tripinfo_rute_11_4" vType="DEFAULT_VEHTYPE" speedFactor="0.94" vaporized=""/>
    <tripinfo id="rute_10_3" depart="34.00" departLane="562021794#1_0" departPos="5.10" departSpeed="0.00" departDelay="9.00" arrival="157.00" arrivalLane="359246993#0_0" arrivalPos="70.96" arrivalSpeed="12.83" duration="123.00" routeLength="2125.24" waitingTime="0.00" waitingCount="0" stopTime="0.00" timeLoss="21.01" rerouteNo="0" devices="tripinfo_rute_10_3" vType="DEFAULT_VEHTYPE" speedFactor="0.93" vaporized=""/>
    <tripinfo id="rute_2_0" depart="25.00" departLane="-675107653#5_0" departPos="5.10" departSpeed="0.00" departDelay="0.00" arrival="158.00" arrivalLane="-359409608_0" arrivalPos="135.48" arrivalSpeed="16.00" duration="133.00" routeLength="2108.53" waitingTime="4.00" waitingCount="1" stopTime="0.00" timeLoss="40.74" rerouteNo="0" devices="tripinfo_rute_2_0" vType="DEFAULT_VEHTYPE" speedFactor="1.18" vaporized=""/>
    <tripinfo id="rute_8_15" depart="75.00" departLane="560361514#10_0" departPos="5.10" departSpeed="0.00" departDelay="50.00" arrival="160.00" arrivalLane="539383768#0_1" arrivalPos="201.66" arrivalSpeed="33.13" duration="85.00" routeLength="2021.71" waitingTime="0.00" waitingCount="0" stopTime="0.00" timeLoss="23.57" rerouteNo="0" devices="tripinfo_rute_8_15" vType="DEFAULT_VEHTYPE" speedFactor="1.23" vaporized=""/>
    <tripinfo id="rute_10_8" depart="62.00" departLane="562021794#1_0" departPos="5.10" departSpeed="0.00" departDelay="37.00" arrival="160.00" arrivalLane="560361514#10_1" arrivalPos="202.28" arrivalSpeed="24.84" duration="98.00" routeLength="2020.79" waitingTime="0.00" waitingCount="0" stopTime="0.00" timeLoss="17.98" rerouteNo="0" devices="tripinfo_rute_10_8" vType="DEFAULT_VEHTYPE" speedFactor="0.91" vaporized=""/>
    <tripinfo id="rute_3_2" depart="31.00" departLane="359246993#0_0" departPos="5.10" departSpeed="0.00" departDelay="6.00" arrival="163.00" arrivalLane="-675107653#5_0" arrivalPos="68.60" arrivalSpeed="11.43" duration="132.00" routeLength="1171.05" waitingTime="39.00" waitingCount="3" stopTime="0.00" timeLoss="67.91" rerouteNo="0" devices="tripinfo_rute_3_2" vType="DEFAULT_VEHTYPE" speedFactor="0.90" vaporized=""/>
    <tripinfo id="rute_2_9" depart="51.00" departLane="-675107653#5_0" departPos="5.10" departSpeed="0.00" departDelay="26.00" arrival="164.00" arrivalLane="560361514#6_0" arrivalPos="442.89" arrivalSpeed="30.61" duration="113.00" routeLength="1922.27" waitingTime="0.00" waitingCount="0" stopTime="0.00" timeLoss="37.37" rerouteNo="0" devices="tripinfo_rute_2_9" vType="DEFAULT_VEHTYPE" speedFactor="1.10" vaporized=""/>
    <tripinfo id="rute_4_5" depart="37.00" departLane="154148014#2_0" departPos="5.10" departSpeed="0.00" departDelay="12.00" arrival="164.00" arrivalLane="230291072_0" arrivalPos="179.75" arrivalSpeed="11.78" duration="127.00" routeLength="1479.25" waitingTime="0.00" waitingCount="0" stopTime="0.00" timeLoss="17.82" rerouteNo="0" devices="tripinfo_rute_4_5" vType="DEFAULT_VEHTYPE" speedFactor="0.94" vaporized=""/>
    <tripinfo id="rute_8_5" depart="40.00" departLane="560361514#10_0" departPos="5.10" departSpeed="0.00" departDelay="15.00" arrival="166.00" arrivalLane="230291072_0" arrivalPos="179.75" arrivalSpeed="14.97" duration="126.00" routeLength="1941.69" waitingTime="0.00" waitingCount="0" stopTime="0.00" timeLoss="22.55" rerouteNo="0" devices="tripinfo_rute_8_5" vType="DEFAULT_VEHTYPE" speedFactor="1.15" vaporized=""/>
    <tripinfo id="rute_10_0" depart="25.00" departLane="562021794#1_0" departPos="5.10" departSpeed="0.00" departDelay="0.00" arrival="168.00" arrivalLane="-359409608_0" arrivalPos="135.48" arrivalSpeed="13.25" duration="143.00" routeLength="1864.03" waitingTime="14.00" waitingCount="1" stopTime="0.00" timeLoss="50.10" rerouteNo="0" devices="tripinfo_rute_10_0" vType="DEFAULT_VEHTYPE" speedFactor="0.96" vaporized=""/>
    <tripinfo id="rute_11_3" depart="34.00" departLane="154148013#6_0" departPos="5.10" departSpeed="0.00" departDelay="9.00" arrival="170.00" arrivalLane="359246993#0_0" arrivalPos="70.96" arrivalSpeed="12.45" duration="136.00" routeLength="2593.57" waitingTime="0.00" waitingCount="0" stopTime="0.00" timeLoss="23.52" rerouteNo="0" devices="tripinfo_rute_11_3" vType="DEFAULT_VEHTYPE" speedFactor="0.98" vaporized=""/>
    <tripinfo id="rute_15_1" depart="28.00" departLane="539383768#0_0" departPos="5.10" departSpeed="0.00" departDelay="3.00" arrival="170.00" arrivalLane="-484446266#8_0" arrivalPos="248.85" arrivalSpeed="16.13" duration="142.00" routeLength="3054.49" waitingTime="0.00" waitingCount="0" stopTime="0.00" timeLoss="42.24" rerouteNo="0" devices="tripinfo_rute_15_1" vType="DEFAULT_VEHTYPE" speedFactor="1.24" vaporized=""/>
    <tripinfo id="rute_5_4" depart="37.00" departLane="230291072_0" departPos="5.10" departSpeed="0.00" departDelay="12.00" arrival="171.00" arrivalLane="154148014#2_1" arrivalPos="6.55" arrivalSpeed="22.87" duration="134.00" routeLength="1782.69" waitingTime="0.00" waitingCount="0" stopTime="0.00" timeLoss="32.79" rerouteNo="0" devices="tripinfo_rute_5_4" vType="DEFAULT_VEHTYPE" speedFactor="1.09" vaporized=""/>
    <tripinfo id="rute_15_8" depart="49.00" departLane="539383768#0_0" departPos="5.10" departSpeed="0.00" departDelay="24.00" arrival="171.00" arrivalLane="560361514#10_0" arrivalPos="202.28" arrivalSpeed="28.68" duration="122.00" routeLength="2337.02" waitingTime="0.00" waitingCount="0" stopTime="0.00" timeLoss="44.15" rerouteNo="0" devices="tripinfo_rute_15_8" vType="DEFAULT_VEHTYPE" speedFactor="1.15" vaporized=""/>
    <tripinfo id="rute_2_4" depart="34.00" departLane="-675107653#5_0" departPos="5.10" departSpeed="0.00" departDelay="9.00" arrival="173.00" arrivalLane="154148014#2_0" arrivalPos="6.55" arrivalSpeed="26.52" duration="139.00" routeLength="2538.72" waitingTime="3.00" waitingCount="1" stopTime="0.00" timeLoss="48.28" rerouteNo="0" devices="tripinfo_rute_2_4" vType="DEFAULT_VEHTYPE" speedFactor="1.17" vaporized=""/>
    <tripinfo id="rute_7_13" depart="61.00" departLane="539383765#3_0" departPos="5.10" departSpeed="0.00" departDelay="36.00" arrival="173.00" arrivalLane="539383768#6_1" arrivalPos="45.63" arrivalSpeed="15.55" duration="112.00" routeLength="317.01" waitingTime="32.00" waitingCount="3" stopTime="0.00" timeLoss="90.47" rerouteNo="0" devices="tripinfo_rute_7_13" vType="DEFAULT_VEHTYPE" speedFactor="1.00" vaporized=""/>
    <tripinfo id="rute_2_8" depart="48.00" departLane="-675107653#5_0" departPos="5.10" departSpeed="0.00" departDelay="23.00" arrival="174.00" arrivalLane="560361514#10_1" arrivalPos="202.28" arrivalSpeed="30.22" duration="126.00" routeLength="2270.92" waitingTime="3.00" waitingCount="2" stopTime="0.00" timeLoss="44.81" rerouteNo="0" devices="tripinfo_rute_2_8" vType="DEFAULT_VEHTYPE" speedFactor="1.18" vaporized=""/>
    <tripinfo id="rute_3_9" depart="49.00" departLane="359246993#0_0" departPos="5.10" departSpeed="0.00" departDelay="24.00" arrival="174.00" arrivalLane="560361514#6_0" arrivalPos="442.89" arrivalSpeed="30.41" duration="125.00" routeLength="1186.80" waitingTime="35.00" waitingCount="2" stopTime="0.00" timeLoss="77.31" rerouteNo="0" devices="tripinfo_rute_3_9" vType="DEFAULT_VEHTYPE" speedFactor="1.10" vaporized=""/>
    <tripinfo id="rute_5_15" depart="67.00" departLane="230291072_0" departPos="5.10" departSpeed="0.00" departDelay="42.00" arrival="176.00" arrivalLane="539383768#0_0" arrivalPos="201.66" arrivalSpeed="27.81" duration="109.00" routeLength="1010.36" waitingTime="10.00" waitingCount="1" stopTime="0.00" timeLoss="42.08" rerouteNo="0" devices="tripinfo_rute_5_15" vType="DEFAULT_VEHTYPE" speedFactor="1.02" vaporized=""/>
    <tripinfo id="rute_6_13" depart="61.00" departLane="539383767#1_0" departPos="5.10" departSpeed="0.00" departDelay="36.00" arrival="177.00" arrivalLane="539383768#6_0" arrivalPos="45.63" arrivalSpeed="17.81" duration="116.00" routeLength="908.96" waitingTime="9.00" waitingCount="3" stopTime="0.00" timeLoss="48.62" rerouteNo="0" devices="tripinfo_rute_6_13" vType="DEFAULT_VEHTYPE" speedFactor="0.97" vaporized=""/>
    <tripinfo id="rute_11_0" depart="25.00" departLane="154148013#6_0" departPos="5.10" departSpeed="0.00" departDelay="0.00" arrival="177.00" arrivalLane="-359409608_0" arrivalPos="135.48" arrivalSpeed="11.60" duration="152.00" routeLength="1539.72" waitingTime="34.00" waitingCount="1" stopTime="0.00" timeLoss="66.36" rerouteNo="0" devices="tripinfo_rute_11_0" vType="DEFAULT_VEHTYPE" speedFactor="0.91" vaporized=""/>
    <tripinfo id="rute_12_4" depart="37.00" departLane="754594908#4_0" departPos="5.10" departSpeed="0.00" departDelay="12.00" arrival="177.00" arrivalLane="154148014#2_0" arrivalPos="6.55" arrivalSpeed="21.14" duration="140.00" routeLength="3050.35" waitingTime="0.00" waitingCount="0" stopTime="0.00" timeLoss="21.24" rerouteNo="0" devices="tripinfo_rute_12_4" vType="DEFAULT_VEHTYPE" speedFactor="0.94" vaporized=""/>
    <tripinfo id="rute_12_5" depart="40.00" departLane="754594908#4_0" departPos="5.10" departSpeed="0.00" departDelay="15.00" arrival="181.00" arrivalLane="230291072_0" arrivalPos="179.75" arrivalSpeed="11.49" duration="141.00" routeLength="2192.63" waitingTime="5.00" waitingCount="1" stopTime="0.00" timeLoss="25.71" rerouteNo="0" devices="tripinfo_rute_12_5" vType="DEFAULT_VEHTYPE" speedFactor="0.92" vaporized=""/>
    <tripinfo id="rute_13_7" depart="44.00" departLane="539383768#6_0" departPos="5.10" departSpeed="0.00" departDelay="19.00" arrival="184.00" arrivalLane="539383765#3_0" arrivalPos="264.82" arrivalSpeed="8.50" duration="140.00" routeLength="837.01" waitingTime="14.00" waitingCount="1" stopTime="0.00" timeLoss="88.86" rerouteNo="0" devices="tripinfo_rute_13_7" vType="DEFAULT_VEHTYPE" speedFactor="1.04" vaporized=""/>
    <tripinfo id="rute_15_2" depart="31.00" departLane="539383768#0_0" departPos="5.10" departSpeed="0.00" departDelay="6.00" arrival="185.00" arrivalLane="-675107653#5_0" arrivalPos="68.60" arrivalSpeed="15.38" duration="154.00" routeLength="3154.55" waitingTime="0.00" waitingCount="0" stopTime="0.00" timeLoss="40.76" rerouteNo="0" devices="tripinfo_rute_15_2" vType="DEFAULT_VEHTYPE" speedFactor="1.11" vaporized=""/>
    <tripinfo id="rute_8_14" depart="72.00" departLane="560361514#10_0" departPos="5.10" departSpeed="0.00" departDelay="47.00" arrival="186.00" arrivalLane="539383768#2_1" arrivalPos="239.65" arrivalSpeed="28.26" duration="114.00" routeLength="2555.02" waitingTime="0.00" waitingCount="0" stopTime="0.00" timeLoss="22.81" rerouteNo="0" devices="tripinfo_rute_8_14" vType="DEFAULT_VEHTYPE" speedFactor="1.04" vaporized=""/>
    <tripinfo id="rute_12_7" depart="46.00" departLane="754594908#4_0" departPos="5.10" departSpeed="0.00" departDelay="21.00" arrival="186.00" arrivalLane="539383765#3_0" arrivalPos="264.82" arrivalSpeed="10.11" duration="140.00" routeLength="830.55" waitingTime="10.00" waitingCount="1" stopTime="0.00" timeLoss="79.95" rerouteNo="0" devices="tripinfo_rute_12_7" vType="DEFAULT_VEHTYPE" speedFactor="0.89" vaporized=""/>
    <tripinfo id="rute_14_7" depart="46.00" departLane="539383768#2_0" departPos="5.10" departSpeed="0.00" departDelay="21.00" arrival="188.00" arrivalLane="539383765#3_0" arrivalPos="264.82" arrivalSpeed="11.27" duration="142.00" routeLength="1325.63" waitingTime="7.00" waitingCount="1" stopTime="0.00" timeLoss="75.89" rerouteNo="0" devices="tripinfo_rute_14_7" vType="DEFAULT_VEHTYPE" speedFactor="1.07" vaporized=""/>
    <tripinfo id="rute_15_7" depart="46.00" departLane="539383768#0_0" departPos="5.10" departSpeed="0.00" departDelay="21.00" arrival="193.00" arrivalLane="539383765#3_0" arrivalPos="264.82" arrivalSpeed="10.54" duration="147.00" routeLength="1820.95" waitingTime="0.00" waitingCount="0" stopTime="0.00" timeLoss="55.06" rerouteNo="0" devices="tripinfo_rute_15_7" vType="DEFAULT_VEHTYPE" speedFactor="0.97" vaporized=""/>
    <tripinfo id="rute_4_15" depart="76.00" departLane="154148014#2_0" departPos="5.10" departSpeed="0.00" departDelay="51.00" arrival="194.00" arrivalLane="539383768#0_1" arrivalPos="201.66" arrivalSpeed="26.18" duration="118.00" routeLength="2195.61" waitingTime="0.00" waitingCount="0" stopTime="0.00" timeLoss="30.99" rerouteNo="0" devices="tripinfo_rute_4_15" vType="DEFAULT_VEHTYPE" speedFactor="0.96" vaporized=""/>
    <tripinfo id="rute_5_14" depart="64.00" departLane="230291072_0" departPos="5.10" departSpeed="0.00" departDelay="39.00" arrival="194.00" arrivalLane="539383768#2_0" arrivalPos="239.65" arrivalSpeed="27.14" duration="130.00" routeLength="1543.67" waitingTime="10.00" waitingCount="1" stopTime="0.00" timeLoss="42.31" rerouteNo="0" devices="tripinfo_rute_5_14" vType="DEFAULT_VEHTYPE" speedFactor="1.01" vaporized=""/>