<?xml version="1.0" encoding="UTF-8"?>

<!-- generated on 06/04/21 21:40:42 by Eclipse SUMO sumo Version 1.8.0
<configuration xmlns:xsi="http://www.w3.org/2001/XMLSchema-instance" xsi:noNamespaceSchemaLocation="http://sumo.dlr.de/xsd/sumoConfiguration.xsd">

    <input>
        <net-file value="2\../BSD.net.xml"/>
        <route-files value="2\bsd_002.rou.xml"/>
        <additional-files value="2\dua_dump_002.add.xml"/>
    </input>

    <output>
        <summary-output value="2\summary_002.xml"/>
        <tripinfo-output value="2\tripinfo_002.xml"/>
    </output>

    <time>
        <begin value="0"/>
    </time>

    <processing>
        <route-steps value="200"/>
        <no-internal-links value="false"/>
        <time-to-teleport value="300"/>
        <time-to-teleport.highways value="0"/>
        <eager-insert value="false"/>
    </processing>

    <report>
        <verbose value="true"/>
        <no-warnings value="false"/>
        <log value="2\iteration_002.sumo.log"/>
        <no-step-log value="true"/>
    </report>

    <random_number>
        <random value="false"/>
    </random_number>

</configuration>
-->

<tripinfos xmlns:xsi="http://www.w3.org/2001/XMLSchema-instance" xsi:noNamespaceSchemaLocation="http://sumo.dlr.de/xsd/tripinfo_file.xsd">
    <tripinfo id="veh3_1" depart="25.00" departLane="154148014#2_0" departPos="5.10" departSpeed="0.00" departDelay="0.00" arrival="107.00" arrivalLane="359246993#0_0" arrivalPos="70.96" arrivalSpeed="11.15" duration="82.00" routeLength="748.89" waitingTime="1.00" waitingCount="1" stopTime="0.00" timeLoss="28.51" rerouteNo="0" devices="tripinfo_veh3_1" vType="DEFAULT_VEHTYPE" speedFactor="0.89" vaporized=""/>
    <tripinfo id="veh4_1" depart="25.00" departLane="-484446266#8_0" departPos="5.10" departSpeed="0.00" departDelay="0.00" arrival="113.00" arrivalLane="560361514#10_0" arrivalPos="202.28" arrivalSpeed="31.44" duration="88.00" routeLength="1587.70" waitingTime="0.00" waitingCount="0" stopTime="0.00" timeLoss="20.91" rerouteNo="0" devices="tripinfo_veh4_1" vType="DEFAULT_VEHTYPE" speedFactor="1.18" vaporized=""/>
    <tripinfo id="veh4_3" depart="25.00" departLane="754594908#4_0" departPos="5.10" departSpeed="0.00" departDelay="0.00" arrival="115.00" arrivalLane="562430406#8_0" arrivalPos="392.55" arrivalSpeed="13.10" duration="90.00" routeLength="1121.25" waitingTime="0.00" waitingCount="0" stopTime="0.00" timeLoss="17.30" rerouteNo="0" devices="tripinfo_veh4_3" vType="DEFAULT_VEHTYPE" speedFactor="1.01" vaporized=""/>
    <tripinfo id="veh1_7" depart="25.00" departLane="359408298#2_0" departPos="5.10" departSpeed="0.00" departDelay="0.00" arrival="123.00" arrivalLane="-359409608_0" arrivalPos="135.48" arrivalSpeed="14.96" duration="98.00" routeLength="1192.12" waitingTime="0.00" waitingCount="0" stopTime="0.00" timeLoss="27.14" rerouteNo="0" devices="tripinfo_veh1_7" vType="DEFAULT_VEHTYPE" speedFactor="1.12" vaporized=""/>
    <tripinfo id="veh2_6" depart="25.00" departLane="396051491#3_0" departPos="5.10" departSpeed="0.00" departDelay="0.00" arrival="129.00" arrivalLane="398041366#1_0" arrivalPos="85.07" arrivalSpeed="13.89" duration="104.00" routeLength="2231.52" waitingTime="0.00" waitingCount="0" stopTime="0.00" timeLoss="19.83" rerouteNo="0" devices="tripinfo_veh2_6" vType="DEFAULT_VEHTYPE" speedFactor="1.02" vaporized=""/>
    <tripinfo id="veh2_3" depart="25.00" departLane="562021794#1_0" departPos="5.10" departSpeed="0.00" departDelay="0.00" arrival="131.00" arrivalLane="562430406#8_0" arrivalPos="392.55" arrivalSpeed="12.60" duration="106.00" routeLength="1269.54" waitingTime="0.00" waitingCount="0" stopTime="0.00" timeLoss="19.58" rerouteNo="0" devices="tripinfo_veh2_3" vType="DEFAULT_VEHTYPE" speedFactor="0.94" vaporized=""/>
    <tripinfo id="veh4_5" depart="25.00" departLane="676492822_0" departPos="5.10" departSpeed="0.00" departDelay="0.00" arrival="134.00" arrivalLane="359247300#1_0" arrivalPos="219.61" arrivalSpeed="13.45" duration="109.00" routeLength="1677.43" waitingTime="0.00" waitingCount="0" stopTime="0.00" timeLoss="23.53" rerouteNo="0" devices="tripinfo_veh4_5" vType="DEFAULT_VEHTYPE" speedFactor="0.99" vaporized=""/>
    <tripinfo id="veh1_6" depart="25.00" departLane="766136200_0" departPos="5.10" departSpeed="0.00" departDelay="0.00" arrival="140.00" arrivalLane="359408298#2_0" arrivalPos="137.25" arrivalSpeed="13.95" duration="115.00" routeLength="1894.41" waitingTime="8.00" waitingCount="1" stopTime="0.00" timeLoss="37.67" rerouteNo="0" devices="tripinfo_veh1_6" vType="DEFAULT_VEHTYPE" speedFactor="1.05" vaporized=""/>
    <tripinfo id="veh3_5" depart="25.00" departLane="539383762#7_0" departPos="5.10" departSpeed="0.00" departDelay="0.00" arrival="160.00" arrivalLane="539383767#1_0" arrivalPos="58.17" arrivalSpeed="12.24" duration="135.00" routeLength="904.36" waitingTime="55.00" waitingCount="2" stopTime="0.00" timeLoss="85.39" rerouteNo="0" devices="tripinfo_veh3_5" vType="DEFAULT_VEHTYPE" speedFactor="0.95" vaporized=""/>
    <tripinfo id="veh3_2" depart="25.00" departLane="359246993#0_0" departPos="5.10" departSpeed="0.00" departDelay="0.00" arrival="165.00" arrivalLane="539383768#0_0" arrivalPos="201.66" arrivalSpeed="22.46" duration="140.00" routeLength="1404.20" waitingTime="0.00" waitingCount="0" stopTime="0.00" timeLoss="25.40" rerouteNo="0" devices="tripinfo_veh3_2" vType="DEFAULT_VEHTYPE" speedFactor="0.83" vaporized=""/>
    <tripinfo id="veh2_7" depart="25.00" departLane="398041366#1_0" departPos="5.10" departSpeed="0.00" departDelay="0.00" arrival="166.00" arrivalLane="-359409608_0" arrivalPos="135.48" arrivalSpeed="13.85" duration="141.00" routeLength="1695.34" waitingTime="9.00" waitingCount="1" stopTime="0.00" timeLoss="44.00" rerouteNo="0" devices="tripinfo_veh2_7" vType="DEFAULT_VEHTYPE" speedFactor="1.01" vaporized=""/>
    <tripinfo id="veh5_1" depart="25.00" departLane="362347497#7_0" departPos="5.10" departSpeed="0.00" departDelay="0.00" arrival="176.00" arrivalLane="154148013#6_0" arrivalPos="327.33" arrivalSpeed="31.91" duration="151.00" routeLength="2010.51" waitingTime="45.00" waitingCount="2" stopTime="0.00" timeLoss="83.81" rerouteNo="0" devices="tripinfo_veh5_1" vType="DEFAULT_VEHTYPE" speedFactor="1.18" vaporized=""/>
    <tripinfo id="veh0_3" depart="25.00" departLane="562021790#0_0" departPos="5.10" departSpeed="0.00" departDelay="0.00" arrival="185.00" arrivalLane="539383768#2_0" arrivalPos="239.65" arrivalSpeed="29.70" duration="160.00" routeLength="3514.32" waitingTime="2.00" waitingCount="1" stopTime="0.00" timeLoss="38.99" rerouteNo="0" devices="tripinfo_veh0_3" vType="DEFAULT_VEHTYPE" speedFactor="1.08" vaporized=""/>
    <tripinfo id="veh1_2" depart="25.00" departLane="359247300#0_0" departPos="5.10" departSpeed="0.00" departDelay="0.00" arrival="195.00" arrivalLane="562549612#1_0" arrivalPos="393.19" arrivalSpeed="12.91" duration="170.00" routeLength="2286.55" waitingTime="0.00" waitingCount="0" stopTime="0.00" timeLoss="33.75" rerouteNo="0" devices="tripinfo_veh1_2" vType="DEFAULT_VEHTYPE" speedFactor="0.94" vaporized=""/>
    <tripinfo id="veh2_4" depart="25.00" departLane="562430406#8_0" departPos="5.10" departSpeed="0.00" departDelay="0.00" arrival="198.00" arrivalLane="539383765#3_0" arrivalPos="264.82" arrivalSpeed="12.39" duration="173.00" routeLength="2664.39" waitingTime="0.00" waitingCount="0" stopTime="0.00" timeLoss="27.91" rerouteNo="0" devices="tripinfo_veh2_4" vType="DEFAULT_VEHTYPE" speedFactor="0.94" vaporized=""/>
    <tripinfo id="veh3_3" depart="25.00" departLane="539383768#0_0" departPos="5.10" departSpeed="0.00" departDelay="0.00" arrival="199.00" arrivalLane="560361514#6_0" arrivalPos="442.89" arrivalSpeed="24.03" duration="174.00" routeLength="3171.93" waitingTime="0.00" waitingCount="0" stopTime="0.00" timeLoss="37.51" rerouteNo="0" devices="tripinfo_veh3_3" vType="DEFAULT_VEHTYPE" speedFactor="0.87" vaporized=""/>
    <tripinfo id="veh4_2" depart="25.00" departLane="560361514#10_0" departPos="5.10" departSpeed="0.00" departDelay="0.00" arrival="202.00" arrivalLane="754594908#4_0" arrivalPos="190.58" arrivalSpeed="31.59" duration="177.00" routeLength="3747.23" waitingTime="24.00" waitingCount="2" stopTime="0.00" timeLoss="58.13" rerouteNo="0" devices="tripinfo_veh4_2" vType="DEFAULT_VEHTYPE" speedFactor="1.15" vaporized=""/>
    <tripinfo id="veh2_0" depart="31.00" departLane="-359409608_0" departPos="5.10" departSpeed="0.00" departDelay="6.00" arrival="210.00" arrivalLane="-359408277#0_0" arrivalPos="175.18" arrivalSpeed="12.71" duration="179.00" routeLength="2191.66" waitingTime="0.00" waitingCount="0" stopTime="0.00" timeLoss="25.84" rerouteNo="0" devices="tripinfo_veh2_0" vType="DEFAULT_VEHTYPE" speedFactor="0.99" vaporized=""/>
    <tripinfo id="veh4_0" depart="37.00" departLane="-359409608_0" departPos="5.10" departSpeed="0.00" departDelay="12.00" arrival="224.00" arrivalLane="-484446266#8_0" arrivalPos="248.85" arrivalSpeed="11.93" duration="187.00" routeLength="2959.40" waitingTime="2.00" waitingCount="1" stopTime="0.00" timeLoss="39.07" rerouteNo="0" devices="tripinfo_veh4_0" vType="DEFAULT_VEHTYPE" speedFactor="0.93" vaporized=""/>
    <tripinfo id="veh3_0" depart="34.00" departLane="-359409608_0" departPos="5.10" departSpeed="0.00" departDelay="9.00" arrival="233.00" arrivalLane="154148014#2_0" arrivalPos="6.55" arrivalSpeed="23.22" duration="199.00" routeLength="3687.11" waitingTime="5.00" waitingCount="1" stopTime="0.00" timeLoss="42.78" rerouteNo="0" devices="tripinfo_veh3_0" vType="DEFAULT_VEHTYPE" speedFactor="0.98" vaporized=""/>
    <tripinfo id="veh1_3" depart="25.00" departLane="562549612#1_0" departPos="5.10" departSpeed="0.00" departDelay="0.00" arrival="236.00" arrivalLane="359247813#2_0" arrivalPos="275.45" arrivalSpeed="11.24" duration="211.00" routeLength="2648.82" waitingTime="0.00" waitingCount="0" stopTime="0.00" timeLoss="32.01" rerouteNo="0" devices="tripinfo_veh1_3" vType="DEFAULT_VEHTYPE" speedFactor="0.86" vaporized=""/>
    <tripinfo id="veh5_2" depart="25.00" departLane="154148013#6_0" departPos="5.10" departSpeed="0.00" departDelay="0.00" arrival="250.00" arrivalLane="230291072_0" arrivalPos="179.75" arrivalSpeed="14.76" duration="225.00" routeLength="3754.42" waitingTime="37.00" waitingCount="1" stopTime="0.00" timeLoss="75.67" rerouteNo="0" devices="tripinfo_veh5_2" vType="DEFAULT_VEHTYPE" speedFactor="1.10" vaporized=""/>
    <tripinfo id="veh3_4" depart="25.00" departLane="560361514#6_0" departPos="5.10" departSpeed="0.00" departDelay="0.00" arrival="252.00" arrivalLane="539383762#7_0" arrivalPos="169.23" arrivalSpeed="12.35" duration="227.00" routeLength="4358.03" waitingTime="0.00" waitingCount="0" stopTime="0.00" timeLoss="35.92" rerouteNo="0" devices="tripinfo_veh3_4" vType="DEFAULT_VEHTYPE" speedFactor="0.92" vaporized=""/>
    <tripinfo id="veh4_4" depart="28.00" departLane="562430406#8_0" departPos="5.10" departSpeed="0.00" departDelay="3.00" arrival="270.00" arrivalLane="676492822_0" arrivalPos="72.78" arrivalSpeed="8.69" duration="242.00" routeLength="3109.20" waitingTime="45.00" waitingCount="2" stopTime="0.00" timeLoss="97.48" rerouteNo="0" devices="tripinfo_veh4_4" vType="DEFAULT_VEHTYPE" speedFactor="1.17" vaporized=""/>
    <tripinfo id="veh0_0" depart="25.00" departLane="-359409608_0" departPos="5.10" departSpeed="0.00" departDelay="0.00" arrival="299.00" arrivalLane="479199742#1_0" arrivalPos="409.63" arrivalSpeed="22.35" duration="274.00" routeLength="4707.16" waitingTime="38.00" waitingCount="1" stopTime="0.00" timeLoss="73.21" rerouteNo="0" devices="tripinfo_veh0_0" vType="DEFAULT_VEHTYPE" speedFactor="1.06" vaporized=""/>
    <tripinfo id="veh0_5" depart="25.00" departLane="781684931#0_0" departPos="5.10" departSpeed="0.00" departDelay="0.00" arrival="380.00" arrivalLane="-359409608_0" arrivalPos="135.48" arrivalSpeed="10.52" duration="355.00" routeLength="5234.95" waitingTime="17.00" waitingCount="1" stopTime="0.00" timeLoss="70.65" rerouteNo="0" devices="tripinfo_veh0_5" vType="DEFAULT_VEHTYPE" speedFactor="0.83" vaporized=""/>
    <tripinfo id="veh0_1" depart="25.00" departLane="479199742#1_0" departPos="5.10" departSpeed="0.00" departDelay="0.00" arrival="443.00" arrivalLane="539383768#6_0" arrivalPos="45.63" arrivalSpeed="16.05" duration="418.00" routeLength="6327.98" waitingTime="77.00" waitingCount="2" stopTime="0.00" timeLoss="117.56" rerouteNo="0" devices="tripinfo_veh0_1" vType="DEFAULT_VEHTYPE" speedFactor="0.94" vaporized=""/>
    <tripinfo id="veh4_6" depart="25.00" departLane="359247300#1_0" departPos="5.10" departSpeed="0.00" departDelay="0.00" arrival="555.00" arrivalLane="-359409608_0" arrivalPos="135.48" arrivalSpeed="12.89" duration="530.00" routeLength="3871.70" waitingTime="305.00" waitingCount="2" stopTime="0.00" timeLoss="349.49" rerouteNo="0" devices="tripinfo_veh4_6" vType="DEFAULT_VEHTYPE" speedFactor="1.02" vaporized=""/>
    <tripinfo id="veh3_6" depart="25.00" departLane="539383767#1_0" departPos="5.10" departSpeed="0.00" departDelay="0.00" arrival="557.00" arrivalLane="-359409608_0" arrivalPos="135.48" arrivalSpeed="14.58" duration="532.00" routeLength="2054.82" waitingTime="359.00" waitingCount="4" stopTime="0.00" timeLoss="423.34" rerouteNo="0" devices="tripinfo_veh3_6" vType="DEFAULT_VEHTYPE" speedFactor="1.13" vaporized=""/>
    <tripinfo id="veh1_4" depart="25.00" departLane="359247813#2_0" departPos="5.10" departSpeed="0.00" departDelay="0.00" arrival="564.00" arrivalLane="-675107653#5_0" arrivalPos="68.60" arrivalSpeed="15.07" duration="539.00" routeLength="2269.83" waitingTime="374.00" waitingCount="3" stopTime="0.00" timeLoss="425.26" rerouteNo="0" devices="tripinfo_veh1_4" vType="DEFAULT_VEHTYPE" speedFactor="1.09" vaporized=""/>
    <tripinfo id="veh1_0" depart="28.00" departLane="-359409608_0" departPos="5.10" departSpeed="0.00" departDelay="3.00" arrival="573.00" arrivalLane="563175147#6_0" arrivalPos="123.61" arrivalSpeed="23.21" duration="545.00" routeLength="2803.54" waitingTime="370.00" waitingCount="4" stopTime="0.00" timeLoss="422.37" rerouteNo="0" devices="tripinfo_veh1_0" vType="DEFAULT_VEHTYPE" speedFactor="1.05" vaporized=""/>
    <tripinfo id="veh5_3" depart="25.00" departLane="230291072_0" departPos="5.10" departSpeed="0.00" departDelay="0.00" arrival="585.00" arrivalLane="363002237#4_0" arrivalPos="45.42" arrivalSpeed="11.23" duration="560.00" routeLength="6293.08" waitingTime="183.00" waitingCount="5" stopTime="0.00" timeLoss="260.95" rerouteNo="0" devices="tripinfo_veh5_3" vType="DEFAULT_VEHTYPE" speedFactor="0.90" vaporized=""/>
    <tripinfo id="veh5_4" depart="25.00" departLane="363002237#4_0" departPos="5.10" departSpeed="0.00" departDelay="0.00" arrival="618.00" arrivalLane="-359409608_0" arrivalPos="135.48" arrivalSpeed="13.96" duration="593.00" routeLength="3970.77" waitingTime="364.00" waitingCount="3" stopTime="0.00" timeLoss="415.74" rerouteNo="0" devices="tripinfo_veh5_4" vType="DEFAULT_VEHTYPE" speedFactor="1.03" vaporized=""/>
    <tripinfo id="veh1_5" depart="25.00" departLane="-675107653#5_0" departPos="5.10" departSpeed="0.00" departDelay="0.00" arrival="622.00" arrivalLane="766136200_0" arrivalPos="53.47" arrivalSpeed="20.34" duration="597.00" routeLength="2652.31" waitingTime="442.00" waitingCount="5" stopTime="0.00" timeLoss="488.66" rerouteNo="0" devices="tripinfo_veh1_5" vType="DEFAULT_VEHTYPE" speedFactor="1.03" vaporized=""/>
    <tripinfo id="veh2_5" depart="25.00" departLane="539383765#3_0" departPos="5.10" departSpeed="0.00" departDelay="0.00" arrival="659.00" arrivalLane="396051491#3_0" arrivalPos="141.12" arrivalSpeed="27.54" duration="634.00" routeLength="3787.34" waitingTime="395.00" waitingCount="3" stopTime="0.00" timeLoss="473.07" rerouteNo="0" devices="tripinfo_veh2_5" vType="DEFAULT_VEHTYPE" speedFactor="1.16" vaporized=""/>
    <tripinfo id="veh0_2" depart="25.00" departLane="539383768#6_0" departPos="5.10" departSpeed="0.00" departDelay="0.00" arrival="664.00" arrivalLane="562021790#0_0" arrivalPos="53.64" arrivalSpeed="27.73" duration="639.00" routeLength="2994.55" waitingTime="466.00" waitingCount="5" stopTime="0.00" timeLoss="527.64" rerouteNo="0" devices="tripinfo_veh0_2" vType="DEFAULT_VEHTYPE" speedFactor="1.01" vaporized=""/>
    <tripinfo id="veh2_1" depart="25.00" departLane="-359408277#0_0" departPos="5.10" departSpeed="0.00" departDelay="0.00" arrival="669.00" arrivalLane="563587627_0" arrivalPos="120.78" arrivalSpeed="12.71" duration="644.00" routeLength="4440.98" waitingTime="377.00" waitingCount="4" stopTime="0.00" timeLoss="426.30" rerouteNo="0" devices="tripinfo_veh2_1" vType="DEFAULT_VEHTYPE" speedFactor="0.93" vaporized=""/>
    <tripinfo id="veh2_2" depart="25.00" departLane="563587627_0" departPos="5.10" departSpeed="0.00" departDelay="0.00" arrival="680.00" arrivalLane="562021794#1_0" arrivalPos="11.24" arrivalSpeed="13.21" duration="655.00" routeLength="3137.08" waitingTime="435.00" waitingCount="4" stopTime="0.00" timeLoss="481.76" rerouteNo="0" devices="tripinfo_veh2_2" vType="DEFAULT_VEHTYPE" speedFactor="0.88" vaporized=""/>
    <tripinfo id="veh5_0" depart="40.00" departLane="-359409608_0" departPos="5.10" departSpeed="0.00" departDelay="15.00" arrival="690.00" arrivalLane="362347497#7_0" arrivalPos="149.91" arrivalSpeed="20.86" duration="650.00" routeLength="3184.18" waitingTime="428.00" waitingCount="5" stopTime="0.00" timeLoss="499.58" rerouteNo="0" devices="tripinfo_veh5_0" vType="DEFAULT_VEHTYPE" speedFactor="0.97" vaporized=""/>
    <tripinfo id="veh1_1" depart="25.00" departLane="563175147#6_0" departPos="5.10" departSpeed="0.00" departDelay="0.00" arrival="698.00" arrivalLane="359247300#0_0" arrivalPos="161.40" arrivalSpeed="11.53" duration="673.00" routeLength="3928.96" waitingTime="438.00" waitingCount="7" stopTime="0.00" timeLoss="493.93" rerouteNo="0" devices="tripinfo_veh1_1" vType="DEFAULT_VEHTYPE" speedFactor="0.89" vaporized=""/>
    <tripinfo id="veh0_4" depart="25.00" departLane="539383768#2_0" departPos="5.10" departSpeed="0.00" departDelay="0.00" arrival="894.00" arrivalLane="781684931#0_0" arrivalPos="57.29" arrivalSpeed="14.24" duration="869.00" routeLength="8163.87" waitingTime="443.00" waitingCount="5" stopTime="0.00" timeLoss="539.56" rerouteNo="0" devices="tripinfo_veh0_4" vType="DEFAULT_VEHTYPE" speedFactor="1.03" vaporized=""/>
</tripinfos>
