<?xml version="1.0" encoding="UTF-8"?>

<!-- generated on 07/03/21 19:08:44 by Eclipse SUMO sumo Version 1.8.0
<configuration xmlns:xsi="http://www.w3.org/2001/XMLSchema-instance" xsi:noNamespaceSchemaLocation="http://sumo.dlr.de/xsd/sumoConfiguration.xsd">

    <input>
        <net-file value="2\../BSD.net.xml"/>
        <route-files value="2\bsd_002.rou.xml"/>
        <additional-files value="2\dua_dump_002.add.xml"/>
    </input>

    <output>
        <summary-output value="2\summary_002.xml"/>
        <tripinfo-output value="2\tripinfo_002.xml"/>
    </output>

    <time>
        <begin value="0"/>
    </time>

    <processing>
        <route-steps value="200"/>
        <no-internal-links value="false"/>
        <time-to-teleport value="300"/>
        <time-to-teleport.highways value="0"/>
        <eager-insert value="false"/>
    </processing>

    <report>
        <verbose value="true"/>
        <no-warnings value="false"/>
        <log value="2\iteration_002.sumo.log"/>
        <no-step-log value="true"/>
    </report>

    <random_number>
        <random value="false"/>
    </random_number>

</configuration>
-->

<tripinfos xmlns:xsi="http://www.w3.org/2001/XMLSchema-instance" xsi:noNamespaceSchemaLocation="http://sumo.dlr.de/xsd/tripinfo_file.xsd">
    <tripinfo id="veh0_6" depart="25.00" departLane="154148014#2_0" departPos="5.10" departSpeed="0.00" departDelay="0.00" arrival="54.00" arrivalLane="560361514#10_0" arrivalPos="202.28" arrivalSpeed="28.71" duration="29.00" routeLength="371.08" waitingTime="0.00" waitingCount="0" stopTime="0.00" timeLoss="14.19" rerouteNo="0" devices="tripinfo_veh0_6" vType="DEFAULT_VEHTYPE" speedFactor="1.05" vaporized=""/>
    <tripinfo id="veh3_3" depart="25.00" departLane="539383765#3_0" departPos="5.10" departSpeed="0.00" departDelay="0.00" arrival="57.00" arrivalLane="539383768#6_1" arrivalPos="45.63" arrivalSpeed="14.35" duration="32.00" routeLength="317.01" waitingTime="0.00" waitingCount="0" stopTime="0.00" timeLoss="7.97" rerouteNo="0" devices="tripinfo_veh3_3" vType="DEFAULT_VEHTYPE" speedFactor="0.92" vaporized=""/>
    <tripinfo id="veh0_2" depart="25.00" departLane="539383768#0_0" departPos="5.10" departSpeed="0.00" departDelay="0.00" arrival="59.00" arrivalLane="539383768#2_0" arrivalPos="239.65" arrivalSpeed="27.62" duration="34.00" routeLength="729.87" waitingTime="0.00" waitingCount="0" stopTime="0.00" timeLoss="7.77" rerouteNo="0" devices="tripinfo_veh0_2" vType="DEFAULT_VEHTYPE" speedFactor="1.01" vaporized=""/>
    <tripinfo id="veh0_7" depart="25.00" departLane="560361514#10_0" departPos="5.10" departSpeed="0.00" departDelay="0.00" arrival="61.00" arrivalLane="359247300#0_0" arrivalPos="161.40" arrivalSpeed="11.46" duration="36.00" routeLength="458.92" waitingTime="0.00" waitingCount="0" stopTime="0.00" timeLoss="9.34" rerouteNo="0" devices="tripinfo_veh0_7" vType="DEFAULT_VEHTYPE" speedFactor="0.89" vaporized=""/>
    <tripinfo id="veh3_1" depart="25.00" departLane="563175147#6_0" departPos="5.10" departSpeed="0.00" departDelay="0.00" arrival="66.00" arrivalLane="362347497#7_0" arrivalPos="149.91" arrivalSpeed="17.19" duration="41.00" routeLength="499.15" waitingTime="0.00" waitingCount="0" stopTime="0.00" timeLoss="11.36" rerouteNo="0" devices="tripinfo_veh3_1" vType="DEFAULT_VEHTYPE" speedFactor="0.83" vaporized=""/>
    <tripinfo id="veh2_3" depart="25.00" departLane="396051491#3_0" departPos="5.10" departSpeed="0.00" departDelay="0.00" arrival="67.00" arrivalLane="766136200_1" arrivalPos="53.47" arrivalSpeed="31.05" duration="42.00" routeLength="780.92" waitingTime="0.00" waitingCount="0" stopTime="0.00" timeLoss="17.27" rerouteNo="0" devices="tripinfo_veh2_3" vType="DEFAULT_VEHTYPE" speedFactor="1.16" vaporized=""/>
    <tripinfo id="veh1_5" depart="25.00" departLane="-675107653#5_0" departPos="5.10" departSpeed="0.00" departDelay="0.00" arrival="68.00" arrivalLane="562021790#0_1" arrivalPos="53.64" arrivalSpeed="26.24" duration="43.00" routeLength="493.46" waitingTime="0.00" waitingCount="0" stopTime="0.00" timeLoss="12.20" rerouteNo="0" devices="tripinfo_veh1_5" vType="DEFAULT_VEHTYPE" speedFactor="0.99" vaporized=""/>
    <tripinfo id="veh1_1" depart="25.00" departLane="359247300#1_0" departPos="5.10" departSpeed="0.00" departDelay="0.00" arrival="81.00" arrivalLane="563587627_0" arrivalPos="120.78" arrivalSpeed="14.04" duration="56.00" routeLength="631.35" waitingTime="0.00" waitingCount="0" stopTime="0.00" timeLoss="12.29" rerouteNo="0" devices="tripinfo_veh1_1" vType="DEFAULT_VEHTYPE" speedFactor="1.09" vaporized=""/>
    <tripinfo id="veh3_4" depart="25.00" departLane="539383768#6_0" departPos="5.10" departSpeed="0.00" departDelay="0.00" arrival="83.00" arrivalLane="539383762#7_0" arrivalPos="169.23" arrivalSpeed="12.66" duration="58.00" routeLength="662.31" waitingTime="0.00" waitingCount="0" stopTime="0.00" timeLoss="14.09" rerouteNo="0" devices="tripinfo_veh3_4" vType="DEFAULT_VEHTYPE" speedFactor="0.95" vaporized=""/>
    <tripinfo id="veh4_1" depart="25.00" departLane="359247813#2_0" departPos="5.10" departSpeed="0.00" departDelay="0.00" arrival="85.00" arrivalLane="562430406#8_0" arrivalPos="392.55" arrivalSpeed="13.40" duration="60.00" routeLength="700.52" waitingTime="0.00" waitingCount="0" stopTime="0.00" timeLoss="8.80" rerouteNo="0" devices="tripinfo_veh4_1" vType="DEFAULT_VEHTYPE" speedFactor="1.01" vaporized=""/>
    <tripinfo id="veh4_2" depart="28.00" departLane="562430406#8_0" departPos="5.10" departSpeed="0.00" departDelay="3.00" arrival="93.00" arrivalLane="398041366#1_0" arrivalPos="85.07" arrivalSpeed="15.54" duration="65.00" routeLength="933.06" waitingTime="0.00" waitingCount="0" stopTime="0.00" timeLoss="18.82" rerouteNo="0" devices="tripinfo_veh4_2" vType="DEFAULT_VEHTYPE" speedFactor="1.17" vaporized=""/>
    <tripinfo id="veh1_4" depart="25.00" departLane="-484446266#8_0" departPos="5.10" departSpeed="0.00" departDelay="0.00" arrival="95.00" arrivalLane="-675107653#5_0" arrivalPos="68.60" arrivalSpeed="14.77" duration="70.00" routeLength="852.46" waitingTime="0.00" waitingCount="0" stopTime="0.00" timeLoss="17.58" rerouteNo="0" devices="tripinfo_veh1_4" vType="DEFAULT_VEHTYPE" speedFactor="1.12" vaporized=""/>
    <tripinfo id="veh1_3" depart="25.00" departLane="359246993#0_0" departPos="5.10" departSpeed="0.00" departDelay="0.00" arrival="96.00" arrivalLane="-484446266#8_0" arrivalPos="248.85" arrivalSpeed="14.10" duration="71.00" routeLength="1070.99" waitingTime="0.00" waitingCount="0" stopTime="0.00" timeLoss="18.67" rerouteNo="0" devices="tripinfo_veh1_3" vType="DEFAULT_VEHTYPE" speedFactor="1.05" vaporized=""/>
    <tripinfo id="veh4_6" depart="25.00" departLane="359408298#2_0" departPos="5.10" departSpeed="0.00" departDelay="0.00" arrival="100.00" arrivalLane="-359408277#0_0" arrivalPos="175.18" arrivalSpeed="15.31" duration="75.00" routeLength="1066.76" waitingTime="0.00" waitingCount="0" stopTime="0.00" timeLoss="8.38" rerouteNo="0" devices="tripinfo_veh4_6" vType="DEFAULT_VEHTYPE" speedFactor="1.18" vaporized=""/>
    <tripinfo id="veh0_4" depart="25.00" departLane="562549612#1_0" departPos="5.10" departSpeed="0.00" departDelay="0.00" arrival="101.00" arrivalLane="676492822_0" arrivalPos="72.78" arrivalSpeed="8.38" duration="76.00" routeLength="737.46" waitingTime="0.00" waitingCount="0" stopTime="0.00" timeLoss="18.11" rerouteNo="0" devices="tripinfo_veh0_4" vType="DEFAULT_VEHTYPE" speedFactor="1.03" vaporized=""/>
    <tripinfo id="veh3_6" depart="25.00" departLane="754594908#4_0" departPos="5.10" departSpeed="0.00" departDelay="0.00" arrival="119.00" arrivalLane="562430406#8_0" arrivalPos="392.55" arrivalSpeed="12.17" duration="94.00" routeLength="1121.25" waitingTime="0.00" waitingCount="0" stopTime="0.00" timeLoss="15.17" rerouteNo="0" devices="tripinfo_veh3_6" vType="DEFAULT_VEHTYPE" speedFactor="0.93" vaporized=""/>
    <tripinfo id="veh0_5" depart="25.00" departLane="676492822_0" departPos="5.10" departSpeed="0.00" departDelay="0.00" arrival="121.00" arrivalLane="154148014#2_0" arrivalPos="6.55" arrivalSpeed="19.69" duration="96.00" routeLength="1449.37" waitingTime="0.00" waitingCount="0" stopTime="0.00" timeLoss="20.15" rerouteNo="0" devices="tripinfo_veh0_5" vType="DEFAULT_VEHTYPE" speedFactor="0.83" vaporized=""/>
    <tripinfo id="veh0_1" depart="25.00" departLane="230291072_0" departPos="5.10" departSpeed="0.00" departDelay="0.00" arrival="122.00" arrivalLane="539383768#0_0" arrivalPos="201.66" arrivalSpeed="25.88" duration="97.00" routeLength="1010.36" waitingTime="0.00" waitingCount="0" stopTime="0.00" timeLoss="24.01" rerouteNo="0" devices="tripinfo_veh0_1" vType="DEFAULT_VEHTYPE" speedFactor="0.94" vaporized=""/>
    <tripinfo id="veh4_5" depart="25.00" departLane="562021794#1_0" departPos="5.10" departSpeed="0.00" departDelay="0.00" arrival="134.00" arrivalLane="359408298#2_0" arrivalPos="137.25" arrivalSpeed="12.51" duration="109.00" routeLength="1380.76" waitingTime="14.00" waitingCount="1" stopTime="0.00" timeLoss="43.09" rerouteNo="0" devices="tripinfo_veh4_5" vType="DEFAULT_VEHTYPE" speedFactor="0.97" vaporized=""/>
    <tripinfo id="veh2_4" depart="25.00" departLane="766136200_0" departPos="5.10" departSpeed="0.00" departDelay="0.00" arrival="144.00" arrivalLane="154148013#6_0" arrivalPos="327.33" arrivalSpeed="27.18" duration="119.00" routeLength="2089.44" waitingTime="7.00" waitingCount="1" stopTime="0.00" timeLoss="41.95" rerouteNo="0" devices="tripinfo_veh2_4" vType="DEFAULT_VEHTYPE" speedFactor="1.02" vaporized=""/>
    <tripinfo id="veh2_2" depart="25.00" departLane="363002237#4_0" departPos="5.10" departSpeed="0.00" departDelay="0.00" arrival="147.00" arrivalLane="396051491#3_1" arrivalPos="141.12" arrivalSpeed="24.99" duration="122.00" routeLength="1625.90" waitingTime="8.00" waitingCount="1" stopTime="0.00" timeLoss="39.46" rerouteNo="0" devices="tripinfo_veh2_2" vType="DEFAULT_VEHTYPE" speedFactor="0.94" vaporized=""/>
    <tripinfo id="veh2_5" depart="25.00" departLane="154148013#6_0" departPos="5.10" departSpeed="0.00" departDelay="0.00" arrival="154.00" arrivalLane="539383767#1_0" arrivalPos="58.17" arrivalSpeed="13.86" duration="129.00" routeLength="1572.75" waitingTime="36.00" waitingCount="1" stopTime="0.00" timeLoss="67.18" rerouteNo="0" devices="tripinfo_veh2_5" vType="DEFAULT_VEHTYPE" speedFactor="1.01" vaporized=""/>
    <tripinfo id="veh3_5" depart="25.00" departLane="539383762#7_0" departPos="5.10" departSpeed="0.00" departDelay="0.00" arrival="162.00" arrivalLane="754594908#4_0" arrivalPos="190.58" arrivalSpeed="30.29" duration="137.00" routeLength="1042.36" waitingTime="60.00" waitingCount="2" stopTime="0.00" timeLoss="93.92" rerouteNo="0" devices="tripinfo_veh3_5" vType="DEFAULT_VEHTYPE" speedFactor="1.13" vaporized=""/>
    <tripinfo id="veh1_6" depart="25.00" departLane="562021790#0_0" departPos="5.10" departSpeed="0.00" departDelay="0.00" arrival="176.00" arrivalLane="-359409608_0" arrivalPos="135.48" arrivalSpeed="12.17" duration="151.00" routeLength="1663.61" waitingTime="32.00" waitingCount="1" stopTime="0.00" timeLoss="64.56" rerouteNo="0" devices="tripinfo_veh1_6" vType="DEFAULT_VEHTYPE" speedFactor="0.93" vaporized=""/>
    <tripinfo id="veh3_7" depart="25.00" departLane="562430406#8_0" departPos="5.10" departSpeed="0.00" departDelay="0.00" arrival="178.00" arrivalLane="-359409608_0" arrivalPos="135.48" arrivalSpeed="16.18" duration="153.00" routeLength="1822.75" waitingTime="12.00" waitingCount="2" stopTime="0.00" timeLoss="66.63" rerouteNo="0" devices="tripinfo_veh3_7" vType="DEFAULT_VEHTYPE" speedFactor="1.18" vaporized=""/>
    <tripinfo id="veh1_2" depart="25.00" departLane="563587627_0" departPos="5.10" departSpeed="0.00" departDelay="0.00" arrival="189.00" arrivalLane="359246993#0_0" arrivalPos="70.96" arrivalSpeed="12.97" duration="164.00" routeLength="1823.35" waitingTime="0.00" waitingCount="0" stopTime="0.00" timeLoss="44.32" rerouteNo="0" devices="tripinfo_veh1_2" vType="DEFAULT_VEHTYPE" speedFactor="1.03" vaporized=""/>
    <tripinfo id="veh4_0" depart="37.00" departLane="-359409608_0" departPos="5.10" departSpeed="0.00" departDelay="12.00" arrival="198.00" arrivalLane="359247813#2_0" arrivalPos="275.45" arrivalSpeed="15.63" duration="161.00" routeLength="2237.89" waitingTime="0.00" waitingCount="0" stopTime="0.00" timeLoss="57.37" rerouteNo="0" devices="tripinfo_veh4_0" vType="DEFAULT_VEHTYPE" speedFactor="1.15" vaporized=""/>
    <tripinfo id="veh2_1" depart="25.00" departLane="781684931#0_0" departPos="5.10" departSpeed="0.00" departDelay="0.00" arrival="204.00" arrivalLane="363002237#4_0" arrivalPos="45.42" arrivalSpeed="11.83" duration="179.00" routeLength="2759.72" waitingTime="0.00" waitingCount="0" stopTime="0.00" timeLoss="28.26" rerouteNo="0" devices="tripinfo_veh2_1" vType="DEFAULT_VEHTYPE" speedFactor="0.94" vaporized=""/>
    <tripinfo id="veh4_3" depart="25.00" departLane="398041366#1_0" departPos="5.10" departSpeed="0.00" departDelay="0.00" arrival="204.00" arrivalLane="560361514#6_0" arrivalPos="442.89" arrivalSpeed="26.76" duration="179.00" routeLength="2336.83" waitingTime="48.00" waitingCount="2" stopTime="0.00" timeLoss="75.30" rerouteNo="0" devices="tripinfo_veh4_3" vType="DEFAULT_VEHTYPE" speedFactor="0.99" vaporized=""/>
    <tripinfo id="veh4_7" depart="25.00" departLane="-359408277#0_0" departPos="5.10" departSpeed="0.00" departDelay="0.00" arrival="208.00" arrivalLane="-359409608_0" arrivalPos="135.48" arrivalSpeed="14.02" duration="183.00" routeLength="2512.00" waitingTime="35.00" waitingCount="1" stopTime="0.00" timeLoss="74.04" rerouteNo="0" devices="tripinfo_veh4_7" vType="DEFAULT_VEHTYPE" speedFactor="1.10" vaporized=""/>
    <tripinfo id="veh3_2" depart="25.00" departLane="362347497#7_0" departPos="5.10" departSpeed="0.00" departDelay="0.00" arrival="220.00" arrivalLane="539383765#3_0" arrivalPos="264.82" arrivalSpeed="12.09" duration="195.00" routeLength="1578.84" waitingTime="74.00" waitingCount="2" stopTime="0.00" timeLoss="98.39" rerouteNo="0" devices="tripinfo_veh3_2" vType="DEFAULT_VEHTYPE" speedFactor="0.87" vaporized=""/>
    <tripinfo id="veh4_4" depart="25.00" departLane="560361514#6_0" departPos="5.10" departSpeed="0.00" departDelay="0.00" arrival="235.00" arrivalLane="562021794#1_0" arrivalPos="11.24" arrivalSpeed="10.97" duration="210.00" routeLength="2212.46" waitingTime="90.00" waitingCount="3" stopTime="0.00" timeLoss="127.71" rerouteNo="0" devices="tripinfo_veh4_4" vType="DEFAULT_VEHTYPE" speedFactor="1.02" vaporized=""/>
    <tripinfo id="veh2_6" depart="25.00" departLane="539383767#1_0" departPos="5.10" departSpeed="0.00" departDelay="0.00" arrival="257.00" arrivalLane="-359409608_0" arrivalPos="135.48" arrivalSpeed="12.89" duration="232.00" routeLength="2054.82" waitingTime="66.00" waitingCount="2" stopTime="0.00" timeLoss="105.96" rerouteNo="0" devices="tripinfo_veh2_6" vType="DEFAULT_VEHTYPE" speedFactor="0.98" vaporized=""/>
    <tripinfo id="veh0_8" depart="25.00" departLane="359247300#0_0" departPos="5.10" departSpeed="0.00" departDelay="0.00" arrival="262.00" arrivalLane="-359409608_0" arrivalPos="135.48" arrivalSpeed="12.65" duration="237.00" routeLength="3586.38" waitingTime="25.00" waitingCount="1" stopTime="0.00" timeLoss="61.30" rerouteNo="0" devices="tripinfo_veh0_8" vType="DEFAULT_VEHTYPE" speedFactor="0.94" vaporized=""/>
    <tripinfo id="veh1_0" depart="28.00" departLane="-359409608_0" departPos="5.10" departSpeed="0.00" departDelay="3.00" arrival="275.00" arrivalLane="359247300#1_0" arrivalPos="219.61" arrivalSpeed="10.79" duration="247.00" routeLength="3915.17" waitingTime="1.00" waitingCount="1" stopTime="0.00" timeLoss="40.98" rerouteNo="0" devices="tripinfo_veh1_0" vType="DEFAULT_VEHTYPE" speedFactor="0.86" vaporized=""/>
    <tripinfo id="veh0_3" depart="25.00" departLane="539383768#2_0" departPos="5.10" departSpeed="0.00" departDelay="0.00" arrival="290.00" arrivalLane="562549612#1_0" arrivalPos="393.19" arrivalSpeed="14.17" duration="265.00" routeLength="5384.67" waitingTime="0.00" waitingCount="0" stopTime="0.00" timeLoss="53.99" rerouteNo="0" devices="tripinfo_veh0_3" vType="DEFAULT_VEHTYPE" speedFactor="1.08" vaporized=""/>
    <tripinfo id="veh5_0" depart="40.00" departLane="-359409608_0" departPos="5.10" departSpeed="0.00" departDelay="15.00" arrival="326.00" arrivalLane="479199742#1_0" arrivalPos="409.63" arrivalSpeed="19.51" duration="286.00" routeLength="4707.16" waitingTime="13.00" waitingCount="1" stopTime="0.00" timeLoss="49.43" rerouteNo="0" devices="tripinfo_veh5_0" vType="DEFAULT_VEHTYPE" speedFactor="0.90" vaporized=""/>
    <tripinfo id="veh3_0" depart="34.00" departLane="-359409608_0" departPos="5.10" departSpeed="0.00" departDelay="9.00" arrival="340.00" arrivalLane="563175147#6_0" arrivalPos="123.61" arrivalSpeed="19.62" duration="306.00" routeLength="2803.54" waitingTime="120.00" waitingCount="3" stopTime="0.00" timeLoss="163.69" rerouteNo="0" devices="tripinfo_veh3_0" vType="DEFAULT_VEHTYPE" speedFactor="0.89" vaporized=""/>
    <tripinfo id="veh0_0" depart="25.00" departLane="-359409608_0" departPos="5.10" departSpeed="0.00" departDelay="0.00" arrival="342.00" arrivalLane="230291072_0" arrivalPos="179.75" arrivalSpeed="14.66" duration="317.00" routeLength="4649.40" waitingTime="52.00" waitingCount="2" stopTime="0.00" timeLoss="114.08" rerouteNo="0" devices="tripinfo_veh0_0" vType="DEFAULT_VEHTYPE" speedFactor="1.06" vaporized=""/>
    <tripinfo id="veh2_0" depart="31.00" departLane="-359409608_0" departPos="5.10" departSpeed="0.00" departDelay="6.00" arrival="467.00" arrivalLane="781684931#0_0" arrivalPos="57.29" arrivalSpeed="11.30" duration="436.00" routeLength="7573.86" waitingTime="32.00" waitingCount="1" stopTime="0.00" timeLoss="94.07" rerouteNo="0" devices="tripinfo_veh2_0" vType="DEFAULT_VEHTYPE" speedFactor="0.88" vaporized=""/>
    <tripinfo id="veh5_1" depart="25.00" departLane="479199742#1_0" departPos="5.10" departSpeed="0.00" departDelay="0.00" arrival="501.00" arrivalLane="-359409608_0" arrivalPos="135.48" arrivalSpeed="13.84" duration="476.00" routeLength="6781.34" waitingTime="116.00" waitingCount="3" stopTime="0.00" timeLoss="181.28" rerouteNo="0" devices="tripinfo_veh5_1" vType="DEFAULT_VEHTYPE" speedFactor="1.03" vaporized=""/>
</tripinfos>
