<?xml version="1.0" encoding="UTF-8"?>

<!-- generated on 06/05/21 09:10:33 by Eclipse SUMO sumo Version 1.8.0
<configuration xmlns:xsi="http://www.w3.org/2001/XMLSchema-instance" xsi:noNamespaceSchemaLocation="http://sumo.dlr.de/xsd/sumoConfiguration.xsd">

    <input>
        <net-file value="2\../BSD.net.xml"/>
        <route-files value="2\bsd_002.rou.xml"/>
        <additional-files value="2\dua_dump_002.add.xml"/>
    </input>

    <output>
        <summary-output value="2\summary_002.xml"/>
        <tripinfo-output value="2\tripinfo_002.xml"/>
    </output>

    <time>
        <begin value="0"/>
    </time>

    <processing>
        <route-steps value="200"/>
        <no-internal-links value="false"/>
        <time-to-teleport value="300"/>
        <time-to-teleport.highways value="0"/>
        <eager-insert value="false"/>
    </processing>

    <report>
        <verbose value="true"/>
        <no-warnings value="false"/>
        <log value="2\iteration_002.sumo.log"/>
        <no-step-log value="true"/>
    </report>

    <random_number>
        <random value="false"/>
    </random_number>

</configuration>
-->

<tripinfos xmlns:xsi="http://www.w3.org/2001/XMLSchema-instance" xsi:noNamespaceSchemaLocation="http://sumo.dlr.de/xsd/tripinfo_file.xsd">
    <tripinfo id="veh7_4" depart="25.00" departLane="560361514#10_0" departPos="5.10" departSpeed="0.00" departDelay="0.00" arrival="56.00" arrivalLane="359247300#0_0" arrivalPos="161.40" arrivalSpeed="15.77" duration="31.00" routeLength="458.92" waitingTime="0.00" waitingCount="0" stopTime="0.00" timeLoss="10.63" rerouteNo="0" devices="tripinfo_veh7_4" vType="DEFAULT_VEHTYPE" speedFactor="1.17" vaporized=""/>
    <tripinfo id="veh0_1" depart="25.00" departLane="562021790#0_0" departPos="5.10" departSpeed="0.00" departDelay="0.00" arrival="78.00" arrivalLane="359247813#2_0" arrivalPos="275.45" arrivalSpeed="12.83" duration="53.00" routeLength="638.95" waitingTime="0.00" waitingCount="0" stopTime="0.00" timeLoss="11.11" rerouteNo="0" devices="tripinfo_veh0_1" vType="DEFAULT_VEHTYPE" speedFactor="0.94" vaporized=""/>
    <tripinfo id="veh4_5" depart="25.00" departLane="562021794#1_0" departPos="5.10" departSpeed="0.00" departDelay="0.00" arrival="83.00" arrivalLane="398041366#1_0" arrivalPos="85.07" arrivalSpeed="15.86" duration="58.00" routeLength="974.34" waitingTime="0.00" waitingCount="0" stopTime="0.00" timeLoss="22.30" rerouteNo="0" devices="tripinfo_veh4_5" vType="DEFAULT_VEHTYPE" speedFactor="1.17" vaporized=""/>
    <tripinfo id="veh6_1" depart="25.00" departLane="154148013#6_0" departPos="5.10" departSpeed="0.00" departDelay="0.00" arrival="105.00" arrivalLane="560361514#6_0" arrivalPos="442.89" arrivalSpeed="29.76" duration="80.00" routeLength="2140.47" waitingTime="0.00" waitingCount="0" stopTime="0.00" timeLoss="9.11" rerouteNo="0" devices="tripinfo_veh6_1" vType="DEFAULT_VEHTYPE" speedFactor="1.09" vaporized=""/>
    <tripinfo id="veh8_1" depart="25.00" departLane="539383768#0_0" departPos="5.10" departSpeed="0.00" departDelay="0.00" arrival="120.00" arrivalLane="230291072_0" arrivalPos="179.75" arrivalSpeed="12.90" duration="95.00" routeLength="1109.67" waitingTime="0.00" waitingCount="0" stopTime="0.00" timeLoss="26.20" rerouteNo="0" devices="tripinfo_veh8_1" vType="DEFAULT_VEHTYPE" speedFactor="1.00" vaporized=""/>
    <tripinfo id="veh7_5" depart="25.00" departLane="359247300#0_0" departPos="5.10" departSpeed="0.00" departDelay="0.00" arrival="123.00" arrivalLane="-484446266#8_0" arrivalPos="248.85" arrivalSpeed="13.68" duration="98.00" routeLength="1589.43" waitingTime="0.00" waitingCount="0" stopTime="0.00" timeLoss="17.36" rerouteNo="0" devices="tripinfo_veh7_5" vType="DEFAULT_VEHTYPE" speedFactor="1.02" vaporized=""/>
    <tripinfo id="veh7_3" depart="25.00" departLane="359244608#0_0" departPos="5.10" departSpeed="0.00" departDelay="0.00" arrival="129.00" arrivalLane="560361514#10_0" arrivalPos="202.28" arrivalSpeed="23.30" duration="104.00" routeLength="1360.75" waitingTime="0.00" waitingCount="0" stopTime="0.00" timeLoss="26.54" rerouteNo="0" devices="tripinfo_veh7_3" vType="DEFAULT_VEHTYPE" speedFactor="0.85" vaporized=""/>
    <tripinfo id="veh6_0" depart="43.00" departLane="-359409608_0" departPos="5.10" departSpeed="0.00" departDelay="18.00" arrival="139.00" arrivalLane="154148013#6_0" arrivalPos="327.33" arrivalSpeed="26.48" duration="96.00" routeLength="1252.42" waitingTime="0.00" waitingCount="0" stopTime="0.00" timeLoss="28.03" rerouteNo="0" devices="tripinfo_veh6_0" vType="DEFAULT_VEHTYPE" speedFactor="0.96" vaporized=""/>
    <tripinfo id="veh1_3" depart="25.00" departLane="359246993#0_0" departPos="5.10" departSpeed="0.00" departDelay="0.00" arrival="161.00" arrivalLane="562549612#1_0" arrivalPos="393.19" arrivalSpeed="14.10" duration="136.00" routeLength="2182.00" waitingTime="0.00" waitingCount="0" stopTime="0.00" timeLoss="31.46" rerouteNo="0" devices="tripinfo_veh1_3" vType="DEFAULT_VEHTYPE" speedFactor="1.09" vaporized=""/>
    <tripinfo id="veh3_4" depart="25.00" departLane="359244597#1_0" departPos="5.10" departSpeed="0.00" departDelay="0.00" arrival="166.00" arrivalLane="359247300#1_0" arrivalPos="219.61" arrivalSpeed="12.53" duration="141.00" routeLength="1620.60" waitingTime="1.00" waitingCount="1" stopTime="0.00" timeLoss="34.74" rerouteNo="0" devices="tripinfo_veh3_4" vType="DEFAULT_VEHTYPE" speedFactor="0.92" vaporized=""/>
    <tripinfo id="veh4_6" depart="25.00" departLane="398041366#1_0" departPos="5.10" departSpeed="0.00" departDelay="0.00" arrival="167.00" arrivalLane="-359409608_0" arrivalPos="135.48" arrivalSpeed="12.71" duration="142.00" routeLength="1695.34" waitingTime="9.00" waitingCount="1" stopTime="0.00" timeLoss="43.10" rerouteNo="0" devices="tripinfo_veh4_6" vType="DEFAULT_VEHTYPE" speedFactor="0.99" vaporized=""/>
    <tripinfo id="veh1_7" depart="25.00" departLane="562430406#8_0" departPos="5.10" departSpeed="0.00" departDelay="0.00" arrival="171.00" arrivalLane="-359409608_0" arrivalPos="135.48" arrivalSpeed="12.81" duration="146.00" routeLength="1822.75" waitingTime="6.00" waitingCount="1" stopTime="0.00" timeLoss="42.43" rerouteNo="0" devices="tripinfo_veh1_7" vType="DEFAULT_VEHTYPE" speedFactor="0.99" vaporized=""/>
    <tripinfo id="veh0_6" depart="25.00" departLane="-359408277#0_0" departPos="5.10" departSpeed="0.00" departDelay="0.00" arrival="173.00" arrivalLane="-359409608_0" arrivalPos="135.48" arrivalSpeed="14.19" duration="148.00" routeLength="2489.75" waitingTime="0.00" waitingCount="0" stopTime="0.00" timeLoss="34.77" rerouteNo="0" devices="tripinfo_veh0_6" vType="DEFAULT_VEHTYPE" speedFactor="1.05" vaporized=""/>
    <tripinfo id="veh1_1" depart="25.00" departLane="539383765#3_0" departPos="5.10" departSpeed="0.00" departDelay="0.00" arrival="193.00" arrivalLane="362347497#7_0" arrivalPos="149.91" arrivalSpeed="19.82" duration="168.00" routeLength="2000.25" waitingTime="0.00" waitingCount="0" stopTime="0.00" timeLoss="28.68" rerouteNo="0" devices="tripinfo_veh1_1" vType="DEFAULT_VEHTYPE" speedFactor="0.94" vaporized=""/>
    <tripinfo id="veh2_2" depart="28.00" departLane="562430406#8_0" departPos="5.10" departSpeed="0.00" departDelay="3.00" arrival="209.00" arrivalLane="539383768#6_0" arrivalPos="45.63" arrivalSpeed="15.64" duration="181.00" routeLength="2121.54" waitingTime="44.00" waitingCount="2" stopTime="0.00" timeLoss="80.05" rerouteNo="0" devices="tripinfo_veh2_2" vType="DEFAULT_VEHTYPE" speedFactor="0.94" vaporized=""/>
    <tripinfo id="veh4_3" depart="25.00" departLane="154148014#2_0" departPos="5.10" departSpeed="0.00" departDelay="0.00" arrival="209.00" arrivalLane="539383762#7_0" arrivalPos="169.23" arrivalSpeed="14.75" duration="184.00" routeLength="3942.67" waitingTime="0.00" waitingCount="0" stopTime="0.00" timeLoss="41.26" rerouteNo="0" devices="tripinfo_veh4_3" vType="DEFAULT_VEHTYPE" speedFactor="1.15" vaporized=""/>
    <tripinfo id="veh5_4" depart="25.00" departLane="-675107653#5_0" departPos="5.10" departSpeed="0.00" departDelay="0.00" arrival="210.00" arrivalLane="539383767#1_0" arrivalPos="58.17" arrivalSpeed="11.43" duration="185.00" routeLength="2163.95" waitingTime="40.00" waitingCount="2" stopTime="0.00" timeLoss="79.45" rerouteNo="0" devices="tripinfo_veh5_4" vType="DEFAULT_VEHTYPE" speedFactor="0.90" vaporized=""/>
    <tripinfo id="veh0_0" depart="25.00" departLane="-359409608_0" departPos="5.10" departSpeed="0.00" departDelay="0.00" arrival="212.00" arrivalLane="562021790#0_0" arrivalPos="53.64" arrivalSpeed="28.56" duration="187.00" routeLength="2971.04" waitingTime="18.00" waitingCount="2" stopTime="0.00" timeLoss="65.54" rerouteNo="0" devices="tripinfo_veh0_0" vType="DEFAULT_VEHTYPE" speedFactor="1.06" vaporized=""/>
    <tripinfo id="veh2_4" depart="25.00" departLane="233703186#0_0" departPos="5.10" departSpeed="0.00" departDelay="0.00" arrival="229.00" arrivalLane="754594908#4_1" arrivalPos="190.58" arrivalSpeed="28.15" duration="204.00" routeLength="3177.64" waitingTime="0.00" waitingCount="0" stopTime="0.00" timeLoss="46.11" rerouteNo="0" devices="tripinfo_veh2_4" vType="DEFAULT_VEHTYPE" speedFactor="1.16" vaporized=""/>
    <tripinfo id="veh4_4" depart="25.00" departLane="539383762#7_0" departPos="5.10" departSpeed="0.00" departDelay="0.00" arrival="232.00" arrivalLane="562021794#1_1" arrivalPos="11.24" arrivalSpeed="15.87" duration="207.00" routeLength="2249.09" waitingTime="60.00" waitingCount="2" stopTime="0.00" timeLoss="113.01" rerouteNo="0" devices="tripinfo_veh4_4" vType="DEFAULT_VEHTYPE" speedFactor="1.01" vaporized=""/>
    <tripinfo id="veh0_3" depart="25.00" departLane="781684931#0_0" departPos="5.10" departSpeed="0.00" departDelay="0.00" arrival="233.00" arrivalLane="403676096#0_0" arrivalPos="281.18" arrivalSpeed="14.88" duration="208.00" routeLength="3549.87" waitingTime="0.00" waitingCount="0" stopTime="0.00" timeLoss="44.34" rerouteNo="0" devices="tripinfo_veh0_3" vType="DEFAULT_VEHTYPE" speedFactor="1.08" vaporized=""/>
    <tripinfo id="veh1_6" depart="25.00" departLane="563587627_0" departPos="5.10" departSpeed="0.00" departDelay="0.00" arrival="238.00" arrivalLane="562430406#8_0" arrivalPos="392.55" arrivalSpeed="14.61" duration="213.00" routeLength="3567.10" waitingTime="0.00" waitingCount="0" stopTime="0.00" timeLoss="36.57" rerouteNo="0" devices="tripinfo_veh1_6" vType="DEFAULT_VEHTYPE" speedFactor="1.12" vaporized=""/>
    <tripinfo id="veh7_1" depart="25.00" departLane="233703205#1_0" departPos="5.10" departSpeed="0.00" departDelay="0.00" arrival="241.00" arrivalLane="-563587585#0_0" arrivalPos="28.41" arrivalSpeed="12.15" duration="216.00" routeLength="3595.40" waitingTime="0.00" waitingCount="0" stopTime="0.00" timeLoss="41.00" rerouteNo="0" devices="tripinfo_veh7_1" vType="DEFAULT_VEHTYPE" speedFactor="0.88" vaporized=""/>
    <tripinfo id="veh2_5" depart="25.00" departLane="754594908#4_0" departPos="5.10" departSpeed="0.00" departDelay="0.00" arrival="250.00" arrivalLane="766136200_0" arrivalPos="53.47" arrivalSpeed="18.43" duration="225.00" routeLength="3278.84" waitingTime="56.00" waitingCount="2" stopTime="0.00" timeLoss="103.46" rerouteNo="0" devices="tripinfo_veh2_5" vType="DEFAULT_VEHTYPE" speedFactor="1.02" vaporized=""/>
    <tripinfo id="veh5_0" depart="40.00" departLane="-359409608_0" departPos="5.10" departSpeed="0.00" departDelay="15.00" arrival="251.00" arrivalLane="396051491#3_0" arrivalPos="141.12" arrivalSpeed="27.63" duration="211.00" routeLength="3706.27" waitingTime="0.00" waitingCount="0" stopTime="0.00" timeLoss="58.90" rerouteNo="0" devices="tripinfo_veh5_0" vType="DEFAULT_VEHTYPE" speedFactor="1.02" vaporized=""/>
    <tripinfo id="veh4_1" depart="25.00" departLane="362985244#7_0" departPos="5.10" departSpeed="0.00" departDelay="0.00" arrival="267.00" arrivalLane="-363359023#5_0" arrivalPos="55.81" arrivalSpeed="12.42" duration="242.00" routeLength="4483.17" waitingTime="0.00" waitingCount="0" stopTime="0.00" timeLoss="37.56" rerouteNo="0" devices="tripinfo_veh4_1" vType="DEFAULT_VEHTYPE" speedFactor="0.93" vaporized=""/>
    <tripinfo id="veh4_2" depart="25.00" departLane="-363359023#5_0" departPos="5.10" departSpeed="0.00" departDelay="0.00" arrival="271.00" arrivalLane="154148014#2_0" arrivalPos="6.55" arrivalSpeed="25.66" duration="246.00" routeLength="5033.11" waitingTime="0.00" waitingCount="0" stopTime="0.00" timeLoss="69.75" rerouteNo="0" devices="tripinfo_veh4_2" vType="DEFAULT_VEHTYPE" speedFactor="1.18" vaporized=""/>
    <tripinfo id="veh7_0" depart="46.00" departLane="-359409608_0" departPos="5.10" departSpeed="0.00" departDelay="21.00" arrival="281.00" arrivalLane="233703205#1_0" arrivalPos="81.35" arrivalSpeed="11.65" duration="235.00" routeLength="3647.79" waitingTime="0.00" waitingCount="0" stopTime="0.00" timeLoss="46.84" rerouteNo="0" devices="tripinfo_veh7_0" vType="DEFAULT_VEHTYPE" speedFactor="0.90" vaporized=""/>
    <tripinfo id="veh8_3" depart="25.00" departLane="358237489#0_0" departPos="5.10" departSpeed="0.00" departDelay="0.00" arrival="291.00" arrivalLane="676492822_0" arrivalPos="72.78" arrivalSpeed="8.95" duration="266.00" routeLength="4111.14" waitingTime="36.00" waitingCount="1" stopTime="0.00" timeLoss="99.21" rerouteNo="0" devices="tripinfo_veh8_3" vType="DEFAULT_VEHTYPE" speedFactor="1.14" vaporized=""/>
    <tripinfo id="veh1_4" depart="25.00" departLane="562549612#1_0" departPos="5.10" departSpeed="0.00" departDelay="0.00" arrival="302.00" arrivalLane="563175147#6_0" arrivalPos="123.61" arrivalSpeed="22.39" duration="277.00" routeLength="3996.13" waitingTime="43.00" waitingCount="2" stopTime="0.00" timeLoss="90.70" rerouteNo="0" devices="tripinfo_veh1_4" vType="DEFAULT_VEHTYPE" speedFactor="1.03" vaporized=""/>
    <tripinfo id="veh7_2" depart="25.00" departLane="-563587585#0_0" departPos="5.10" departSpeed="0.00" departDelay="0.00" arrival="304.00" arrivalLane="359244608#0_0" arrivalPos="92.62" arrivalSpeed="11.24" duration="279.00" routeLength="4670.24" waitingTime="0.00" waitingCount="0" stopTime="0.00" timeLoss="53.35" rerouteNo="0" devices="tripinfo_veh7_2" vType="DEFAULT_VEHTYPE" speedFactor="0.85" vaporized=""/>
    <tripinfo id="veh2_3" depart="25.00" departLane="539383768#6_0" departPos="5.10" departSpeed="0.00" departDelay="0.00" arrival="321.00" arrivalLane="233703186#0_0" arrivalPos="230.12" arrivalSpeed="12.62" duration="296.00" routeLength="3471.40" waitingTime="69.00" waitingCount="2" stopTime="0.00" timeLoss="113.68" rerouteNo="0" devices="tripinfo_veh2_3" vType="DEFAULT_VEHTYPE" speedFactor="0.94" vaporized=""/>
    <tripinfo id="veh5_1" depart="25.00" departLane="396051491#3_0" departPos="5.10" departSpeed="0.00" departDelay="0.00" arrival="325.00" arrivalLane="757450364#0_0" arrivalPos="86.62" arrivalSpeed="20.56" duration="300.00" routeLength="6391.49" waitingTime="0.00" waitingCount="0" stopTime="0.00" timeLoss="43.97" rerouteNo="0" devices="tripinfo_veh5_1" vType="DEFAULT_VEHTYPE" speedFactor="0.97" vaporized=""/>
    <tripinfo id="veh3_3" depart="25.00" departLane="359408298#2_0" departPos="5.10" departSpeed="0.00" departDelay="0.00" arrival="329.00" arrivalLane="359244597#1_0" arrivalPos="33.77" arrivalSpeed="11.46" duration="304.00" routeLength="3906.97" waitingTime="24.00" waitingCount="1" stopTime="0.00" timeLoss="74.84" rerouteNo="0" devices="tripinfo_veh3_3" vType="DEFAULT_VEHTYPE" speedFactor="0.87" vaporized=""/>
    <tripinfo id="veh1_2" depart="25.00" departLane="362347497#7_0" departPos="5.10" departSpeed="0.00" departDelay="0.00" arrival="357.00" arrivalLane="359246993#0_0" arrivalPos="70.96" arrivalSpeed="11.09" duration="332.00" routeLength="4259.60" waitingTime="74.00" waitingCount="2" stopTime="0.00" timeLoss="124.47" rerouteNo="0" devices="tripinfo_veh1_2" vType="DEFAULT_VEHTYPE" speedFactor="0.86" vaporized=""/>
    <tripinfo id="veh5_2" depart="25.00" departLane="757450364#0_0" departPos="5.10" departSpeed="0.00" departDelay="0.00" arrival="401.00" arrivalLane="539383768#2_0" arrivalPos="239.65" arrivalSpeed="32.11" duration="376.00" routeLength="5158.95" waitingTime="146.00" waitingCount="4" stopTime="0.00" timeLoss="201.57" rerouteNo="0" devices="tripinfo_veh5_2" vType="DEFAULT_VEHTYPE" speedFactor="1.18" vaporized=""/>
    <tripinfo id="veh0_4" depart="25.00" departLane="403676096#0_0" departPos="5.10" departSpeed="0.00" departDelay="0.00" arrival="420.00" arrivalLane="363373882#0_0" arrivalPos="12.94" arrivalSpeed="13.70" duration="395.00" routeLength="5081.65" waitingTime="96.00" waitingCount="3" stopTime="0.00" timeLoss="164.16" rerouteNo="0" devices="tripinfo_veh0_4" vType="DEFAULT_VEHTYPE" speedFactor="1.03" vaporized=""/>
    <tripinfo id="veh6_3" depart="25.00" departLane="168328152#0_0" departPos="5.10" departSpeed="0.00" departDelay="0.00" arrival="444.00" arrivalLane="479199742#1_0" arrivalPos="409.63" arrivalSpeed="22.56" duration="419.00" routeLength="6984.58" waitingTime="86.00" waitingCount="2" stopTime="0.00" timeLoss="146.47" rerouteNo="0" devices="tripinfo_veh6_3" vType="DEFAULT_VEHTYPE" speedFactor="1.04" vaporized=""/>
    <tripinfo id="veh3_2" depart="25.00" departLane="729152092#2_0" departPos="5.10" departSpeed="0.00" departDelay="0.00" arrival="447.00" arrivalLane="359408298#2_0" arrivalPos="137.25" arrivalSpeed="11.07" duration="422.00" routeLength="5425.81" waitingTime="82.00" waitingCount="3" stopTime="0.00" timeLoss="125.87" rerouteNo="0" devices="tripinfo_veh3_2" vType="DEFAULT_VEHTYPE" speedFactor="0.83" vaporized=""/>
    <tripinfo id="veh4_0" depart="37.00" departLane="-359409608_0" departPos="5.10" departSpeed="0.00" departDelay="12.00" arrival="451.00" arrivalLane="362985244#7_0" arrivalPos="27.72" arrivalSpeed="14.99" duration="414.00" routeLength="7645.66" waitingTime="41.00" waitingCount="2" stopTime="0.00" timeLoss="143.44" rerouteNo="0" devices="tripinfo_veh4_0" vType="DEFAULT_VEHTYPE" speedFactor="1.13" vaporized=""/>
    <tripinfo id="veh2_0" depart="31.00" departLane="-359409608_0" departPos="5.10" departSpeed="0.00" departDelay="6.00" arrival="515.00" arrivalLane="-362985261#6_0" arrivalPos="61.07" arrivalSpeed="12.76" duration="484.00" routeLength="8061.59" waitingTime="38.00" waitingCount="2" stopTime="0.00" timeLoss="119.90" rerouteNo="0" devices="tripinfo_veh2_0" vType="DEFAULT_VEHTYPE" speedFactor="0.93" vaporized=""/>
    <tripinfo id="veh3_0" depart="34.00" departLane="-359409608_0" departPos="5.10" departSpeed="0.00" departDelay="9.00" arrival="548.00" arrivalLane="362985258#0_0" arrivalPos="52.30" arrivalSpeed="12.69" duration="514.00" routeLength="8746.76" waitingTime="38.00" waitingCount="1" stopTime="0.00" timeLoss="118.82" rerouteNo="0" devices="tripinfo_veh3_0" vType="DEFAULT_VEHTYPE" speedFactor="0.98" vaporized=""/>
    <tripinfo id="veh5_5" depart="25.00" departLane="539383767#1_0" departPos="5.10" departSpeed="0.00" departDelay="0.00" arrival="556.00" arrivalLane="-359409608_0" arrivalPos="135.48" arrivalSpeed="13.91" duration="531.00" routeLength="2054.82" waitingTime="360.00" waitingCount="4" stopTime="0.00" timeLoss="411.76" rerouteNo="0" devices="tripinfo_veh5_5" vType="DEFAULT_VEHTYPE" speedFactor="1.03" vaporized=""/>
    <tripinfo id="veh3_1" depart="25.00" departLane="362985258#0_0" departPos="5.10" departSpeed="0.00" departDelay="0.00" arrival="558.00" arrivalLane="729152092#2_0" arrivalPos="908.74" arrivalSpeed="19.12" duration="533.00" routeLength="9172.62" waitingTime="25.00" waitingCount="1" stopTime="0.00" timeLoss="93.75" rerouteNo="0" devices="tripinfo_veh3_1" vType="DEFAULT_VEHTYPE" speedFactor="0.89" vaporized=""/>
    <tripinfo id="veh2_6" depart="25.00" departLane="766136200_0" departPos="5.10" departSpeed="0.00" departDelay="0.00" arrival="559.00" arrivalLane="-359409608_0" arrivalPos="135.48" arrivalSpeed="13.04" duration="534.00" routeLength="3130.11" waitingTime="340.00" waitingCount="3" stopTime="0.00" timeLoss="399.15" rerouteNo="0" devices="tripinfo_veh2_6" vType="DEFAULT_VEHTYPE" speedFactor="1.01" vaporized=""/>
    <tripinfo id="veh7_6" depart="25.00" departLane="-484446266#8_0" departPos="5.10" departSpeed="0.00" departDelay="0.00" arrival="561.00" arrivalLane="-359409608_0" arrivalPos="135.48" arrivalSpeed="15.03" duration="536.00" routeLength="2749.35" waitingTime="354.00" waitingCount="3" stopTime="0.00" timeLoss="408.60" rerouteNo="0" devices="tripinfo_veh7_6" vType="DEFAULT_VEHTYPE" speedFactor="1.10" vaporized=""/>
    <tripinfo id="veh6_5" depart="25.00" departLane="363002237#4_0" departPos="5.10" departSpeed="0.00" departDelay="0.00" arrival="566.00" arrivalLane="-359409608_0" arrivalPos="135.48" arrivalSpeed="13.42" duration="541.00" routeLength="3956.36" waitingTime="310.00" waitingCount="2" stopTime="0.00" timeLoss="358.83" rerouteNo="0" devices="tripinfo_veh6_5" vType="DEFAULT_VEHTYPE" speedFactor="1.00" vaporized=""/>
    <tripinfo id="veh2_1" depart="25.00" departLane="-362985261#6_0" departPos="5.10" departSpeed="0.00" departDelay="0.00" arrival="570.00" arrivalLane="562430406#8_0" arrivalPos="392.55" arrivalSpeed="11.77" duration="545.00" routeLength="5882.85" waitingTime="173.00" waitingCount="3" stopTime="0.00" timeLoss="234.07" rerouteNo="0" devices="tripinfo_veh2_1" vType="DEFAULT_VEHTYPE" speedFactor="0.88" vaporized=""/>
    <tripinfo id="veh6_2" depart="25.00" departLane="560361514#6_0" departPos="5.10" departSpeed="0.00" departDelay="0.00" arrival="592.00" arrivalLane="168328152#0_0" arrivalPos="48.55" arrivalSpeed="14.17" duration="567.00" routeLength="4542.96" waitingTime="352.00" waitingCount="3" stopTime="0.00" timeLoss="399.20" rerouteNo="0" devices="tripinfo_veh6_2" vType="DEFAULT_VEHTYPE" speedFactor="1.04" vaporized=""/>
    <tripinfo id="veh8_4" depart="25.00" departLane="676492822_0" departPos="5.10" departSpeed="0.00" departDelay="0.00" arrival="615.00" arrivalLane="-359409608_0" arrivalPos="135.48" arrivalSpeed="14.01" duration="590.00" routeLength="3553.10" waitingTime="349.00" waitingCount="3" stopTime="0.00" timeLoss="410.68" rerouteNo="0" devices="tripinfo_veh8_4" vType="DEFAULT_VEHTYPE" speedFactor="1.02" vaporized=""/>
    <tripinfo id="veh3_5" depart="25.00" departLane="359247300#1_0" departPos="5.10" departSpeed="0.00" departDelay="0.00" arrival="622.00" arrivalLane="-359409608_0" arrivalPos="135.48" arrivalSpeed="13.06" duration="597.00" routeLength="3871.70" waitingTime="348.00" waitingCount="3" stopTime="0.00" timeLoss="402.80" rerouteNo="0" devices="tripinfo_veh3_5" vType="DEFAULT_VEHTYPE" speedFactor="0.95" vaporized=""/>
    <tripinfo id="veh0_5" depart="25.00" departLane="363373882#0_0" departPos="5.10" departSpeed="0.00" departDelay="0.00" arrival="646.00" arrivalLane="-359408277#0_0" arrivalPos="175.18" arrivalSpeed="10.86" duration="621.00" routeLength="7895.68" waitingTime="130.00" waitingCount="3" stopTime="0.00" timeLoss="211.66" rerouteNo="0" devices="tripinfo_veh0_5" vType="DEFAULT_VEHTYPE" speedFactor="0.83" vaporized=""/>
    <tripinfo id="veh6_4" depart="25.00" departLane="479199742#1_0" departPos="5.10" departSpeed="0.00" departDelay="0.00" arrival="672.00" arrivalLane="363002237#4_0" arrivalPos="45.42" arrivalSpeed="15.00" duration="647.00" routeLength="9393.15" waitingTime="200.00" waitingCount="7" stopTime="0.00" timeLoss="292.30" rerouteNo="0" devices="tripinfo_veh6_4" vType="DEFAULT_VEHTYPE" speedFactor="1.09" vaporized=""/>
    <tripinfo id="veh8_0" depart="49.00" departLane="-359409608_0" departPos="5.10" departSpeed="0.00" departDelay="24.00" arrival="902.00" arrivalLane="539383768#0_0" arrivalPos="201.66" arrivalSpeed="26.93" duration="853.00" routeLength="4208.29" waitingTime="622.00" waitingCount="2" stopTime="0.00" timeLoss="675.89" rerouteNo="0" devices="tripinfo_veh8_0" vType="DEFAULT_VEHTYPE" speedFactor="1.00" vaporized=""/>
    <tripinfo id="veh1_0" depart="28.00" departLane="-359409608_0" departPos="5.10" departSpeed="0.00" departDelay="3.00" arrival="908.00" arrivalLane="539383765#3_0" arrivalPos="264.82" arrivalSpeed="11.80" duration="880.00" routeLength="3322.53" waitingTime="629.00" waitingCount="4" stopTime="0.00" timeLoss="694.08" rerouteNo="0" devices="tripinfo_veh1_0" vType="DEFAULT_VEHTYPE" speedFactor="0.89" vaporized=""/>
    <tripinfo id="veh5_3" depart="25.00" departLane="539383768#2_0" departPos="5.10" departSpeed="0.00" departDelay="0.00" arrival="924.00" arrivalLane="-675107653#5_0" arrivalPos="68.60" arrivalSpeed="14.16" duration="899.00" routeLength="3503.39" waitingTime="713.00" waitingCount="6" stopTime="0.00" timeLoss="772.58" rerouteNo="0" devices="tripinfo_veh5_3" vType="DEFAULT_VEHTYPE" speedFactor="1.10" vaporized=""/>
    <tripinfo id="veh1_5" depart="25.00" departLane="563175147#6_0" departPos="5.10" departSpeed="0.00" departDelay="0.00" arrival="946.00" arrivalLane="563587627_0" arrivalPos="120.78" arrivalSpeed="14.00" duration="921.00" routeLength="4579.92" waitingTime="652.00" waitingCount="5" stopTime="0.00" timeLoss="721.36" rerouteNo="0" devices="tripinfo_veh1_5" vType="DEFAULT_VEHTYPE" speedFactor="1.05" vaporized=""/>
    <tripinfo id="veh0_2" depart="25.00" departLane="359247813#2_0" departPos="5.10" departSpeed="0.00" departDelay="0.00" arrival="1077.00" arrivalLane="781684931#0_0" arrivalPos="57.29" arrivalSpeed="13.62" duration="1052.00" routeLength="7159.23" waitingTime="692.00" waitingCount="5" stopTime="0.00" timeLoss="759.41" rerouteNo="0" devices="tripinfo_veh0_2" vType="DEFAULT_VEHTYPE" speedFactor="1.01" vaporized=""/>
    <tripinfo id="veh8_2" depart="25.00" departLane="230291072_0" departPos="5.10" departSpeed="0.00" departDelay="0.00" arrival="1094.00" arrivalLane="358237489#0_0" arrivalPos="86.17" arrivalSpeed="12.06" duration="1069.00" routeLength="7043.68" waitingTime="630.00" waitingCount="6" stopTime="0.00" timeLoss="706.88" rerouteNo="0" devices="tripinfo_veh8_2" vType="DEFAULT_VEHTYPE" speedFactor="0.90" vaporized=""/>
</tripinfos>
