<?xml version="1.0" encoding="UTF-8"?>

<!-- generated on 06/23/21 13:19:34 by Eclipse SUMO sumo Version 1.8.0
<configuration xmlns:xsi="http://www.w3.org/2001/XMLSchema-instance" xsi:noNamespaceSchemaLocation="http://sumo.dlr.de/xsd/sumoConfiguration.xsd">

    <input>
        <net-file value="0\../BSD.net.xml"/>
        <route-files value="0\bsd_000.rou.xml"/>
        <additional-files value="0\dua_dump_000.add.xml"/>
    </input>

    <output>
        <summary-output value="0\summary_000.xml"/>
        <tripinfo-output value="0\tripinfo_000.xml"/>
    </output>

    <time>
        <begin value="0"/>
    </time>

    <processing>
        <route-steps value="200"/>
        <no-internal-links value="false"/>
        <time-to-teleport value="300"/>
        <time-to-teleport.highways value="0"/>
        <eager-insert value="false"/>
    </processing>

    <report>
        <verbose value="true"/>
        <no-warnings value="false"/>
        <log value="0\iteration_000.sumo.log"/>
        <no-step-log value="true"/>
    </report>

    <random_number>
        <random value="false"/>
    </random_number>

</configuration>
-->

<tripinfos xmlns:xsi="http://www.w3.org/2001/XMLSchema-instance" xsi:noNamespaceSchemaLocation="http://sumo.dlr.de/xsd/tripinfo_file.xsd">
    <tripinfo id="veh5_3" depart="25.00" departLane="359246993#0_0" departPos="5.10" departSpeed="0.00" departDelay="0.00" arrival="54.00" arrivalLane="560361514#10_1" arrivalPos="202.28" arrivalSpeed="22.97" duration="29.00" routeLength="344.96" waitingTime="0.00" waitingCount="0" stopTime="0.00" timeLoss="9.07" rerouteNo="0" devices="tripinfo_veh5_3" vType="DEFAULT_VEHTYPE" speedFactor="0.87" vaporized=""/>
    <tripinfo id="veh10_2" depart="25.00" departLane="539383765#3_0" departPos="5.10" departSpeed="0.00" departDelay="0.00" arrival="58.00" arrivalLane="539383768#6_1" arrivalPos="45.63" arrivalSpeed="13.13" duration="33.00" routeLength="317.01" waitingTime="0.00" waitingCount="0" stopTime="0.00" timeLoss="7.36" rerouteNo="0" devices="tripinfo_veh10_2" vType="DEFAULT_VEHTYPE" speedFactor="0.85" vaporized=""/>
    <tripinfo id="veh3_1" depart="25.00" departLane="359244597#1_0" departPos="5.10" departSpeed="0.00" departDelay="0.00" arrival="73.00" arrivalLane="359244608#0_0" arrivalPos="92.62" arrivalSpeed="13.56" duration="48.00" routeLength="458.36" waitingTime="0.00" waitingCount="0" stopTime="0.00" timeLoss="11.77" rerouteNo="0" devices="tripinfo_veh3_1" vType="DEFAULT_VEHTYPE" speedFactor="0.99" vaporized=""/>
    <tripinfo id="veh6_1" depart="25.00" departLane="154148014#2_0" departPos="5.10" departSpeed="0.00" departDelay="0.00" arrival="85.00" arrivalLane="233703205#1_0" arrivalPos="81.35" arrivalSpeed="12.65" duration="60.00" routeLength="592.63" waitingTime="0.00" waitingCount="0" stopTime="0.00" timeLoss="18.35" rerouteNo="0" devices="tripinfo_veh6_1" vType="DEFAULT_VEHTYPE" speedFactor="0.93" vaporized=""/>
    <tripinfo id="veh9_1" depart="25.00" departLane="539383762#7_0" departPos="5.10" departSpeed="0.00" departDelay="0.00" arrival="90.00" arrivalLane="563175147#6_2" arrivalPos="123.61" arrivalSpeed="22.85" duration="65.00" routeLength="1074.55" waitingTime="0.00" waitingCount="0" stopTime="0.00" timeLoss="12.80" rerouteNo="0" devices="tripinfo_veh9_1" vType="DEFAULT_VEHTYPE" speedFactor="1.04" vaporized=""/>
    <tripinfo id="veh0_2" depart="25.00" departLane="168328152#0_0" departPos="5.10" departSpeed="0.00" departDelay="0.00" arrival="92.00" arrivalLane="766136200_1" arrivalPos="53.47" arrivalSpeed="27.30" duration="67.00" routeLength="1071.18" waitingTime="0.00" waitingCount="0" stopTime="0.00" timeLoss="21.50" rerouteNo="0" devices="tripinfo_veh0_2" vType="DEFAULT_VEHTYPE" speedFactor="1.01" vaporized=""/>
    <tripinfo id="veh11_1" depart="25.00" departLane="560361514#6_0" departPos="5.10" departSpeed="0.00" departDelay="0.00" arrival="98.00" arrivalLane="359247300#1_0" arrivalPos="219.61" arrivalSpeed="12.76" duration="73.00" routeLength="1282.30" waitingTime="0.00" waitingCount="0" stopTime="0.00" timeLoss="11.77" rerouteNo="0" devices="tripinfo_veh11_1" vType="DEFAULT_VEHTYPE" speedFactor="1.00" vaporized=""/>
    <tripinfo id="veh12_2" depart="28.00" departLane="562430406#8_0" departPos="5.10" departSpeed="0.00" departDelay="3.00" arrival="99.00" arrivalLane="398041366#1_0" arrivalPos="85.07" arrivalSpeed="12.85" duration="71.00" routeLength="933.06" waitingTime="0.00" waitingCount="0" stopTime="0.00" timeLoss="15.74" rerouteNo="0" devices="tripinfo_veh12_2" vType="DEFAULT_VEHTYPE" speedFactor="0.97" vaporized=""/>
    <tripinfo id="veh6_2" depart="25.00" departLane="233703205#1_0" departPos="5.10" departSpeed="0.00" departDelay="0.00" arrival="106.00" arrivalLane="359247300#0_0" arrivalPos="161.40" arrivalSpeed="15.80" duration="81.00" routeLength="1039.22" waitingTime="0.00" waitingCount="0" stopTime="0.00" timeLoss="29.00" rerouteNo="0" devices="tripinfo_veh6_2" vType="DEFAULT_VEHTYPE" speedFactor="1.18" vaporized=""/>
    <tripinfo id="veh9_3" depart="25.00" departLane="539383767#1_0" departPos="5.10" departSpeed="0.00" departDelay="0.00" arrival="111.00" arrivalLane="562430406#8_0" arrivalPos="392.55" arrivalSpeed="14.50" duration="86.00" routeLength="1038.83" waitingTime="0.00" waitingCount="0" stopTime="0.00" timeLoss="14.51" rerouteNo="0" devices="tripinfo_veh9_3" vType="DEFAULT_VEHTYPE" speedFactor="1.09" vaporized=""/>
    <tripinfo id="veh5_4" depart="25.00" departLane="560361514#10_0" departPos="5.10" departSpeed="0.00" departDelay="0.00" arrival="112.00" arrivalLane="562021790#0_0" arrivalPos="53.64" arrivalSpeed="25.09" duration="87.00" routeLength="1935.59" waitingTime="0.00" waitingCount="0" stopTime="0.00" timeLoss="10.32" rerouteNo="0" devices="tripinfo_veh5_4" vType="DEFAULT_VEHTYPE" speedFactor="0.92" vaporized=""/>
    <tripinfo id="veh6_3" depart="25.00" departLane="359247300#0_0" departPos="5.10" departSpeed="0.00" departDelay="0.00" arrival="114.00" arrivalLane="-484446266#8_0" arrivalPos="248.85" arrivalSpeed="15.01" duration="89.00" routeLength="1589.43" waitingTime="0.00" waitingCount="0" stopTime="0.00" timeLoss="17.69" rerouteNo="0" devices="tripinfo_veh6_3" vType="DEFAULT_VEHTYPE" speedFactor="1.15" vaporized=""/>
    <tripinfo id="veh12_1" depart="25.00" departLane="754594908#4_0" departPos="5.10" departSpeed="0.00" departDelay="0.00" arrival="115.00" arrivalLane="562430406#8_0" arrivalPos="392.55" arrivalSpeed="13.24" duration="90.00" routeLength="1121.25" waitingTime="0.00" waitingCount="0" stopTime="0.00" timeLoss="17.96" rerouteNo="0" devices="tripinfo_veh12_1" vType="DEFAULT_VEHTYPE" speedFactor="1.02" vaporized=""/>
    <tripinfo id="veh5_1" depart="25.00" departLane="230291072_0" departPos="5.10" departSpeed="0.00" departDelay="0.00" arrival="124.00" arrivalLane="539383768#0_0" arrivalPos="201.66" arrivalSpeed="24.49" duration="99.00" routeLength="1010.36" waitingTime="0.00" waitingCount="0" stopTime="0.00" timeLoss="21.99" rerouteNo="0" devices="tripinfo_veh5_1" vType="DEFAULT_VEHTYPE" speedFactor="0.89" vaporized=""/>
    <tripinfo id="veh4_1" depart="25.00" departLane="-563587585#0_0" departPos="5.10" departSpeed="0.00" departDelay="0.00" arrival="127.00" arrivalLane="676492822_0" arrivalPos="72.78" arrivalSpeed="8.46" duration="102.00" routeLength="1861.14" waitingTime="0.00" waitingCount="0" stopTime="0.00" timeLoss="21.77" rerouteNo="0" devices="tripinfo_veh4_1" vType="DEFAULT_VEHTYPE" speedFactor="1.16" vaporized=""/>
    <tripinfo id="veh7_3" depart="25.00" departLane="359408298#2_0" departPos="5.10" departSpeed="0.00" departDelay="0.00" arrival="131.00" arrivalLane="-359409608_0" arrivalPos="135.48" arrivalSpeed="16.07" duration="106.00" routeLength="1192.12" waitingTime="7.00" waitingCount="1" stopTime="0.00" timeLoss="38.54" rerouteNo="0" devices="tripinfo_veh7_3" vType="DEFAULT_VEHTYPE" speedFactor="1.18" vaporized=""/>
    <tripinfo id="veh2_1" depart="25.00" departLane="-363359023#5_0" departPos="5.10" departSpeed="0.00" departDelay="0.00" arrival="135.00" arrivalLane="363002237#4_0" arrivalPos="45.42" arrivalSpeed="14.93" duration="110.00" routeLength="1620.37" waitingTime="0.00" waitingCount="0" stopTime="0.00" timeLoss="26.65" rerouteNo="0" devices="tripinfo_veh2_1" vType="DEFAULT_VEHTYPE" speedFactor="1.09" vaporized=""/>
    <tripinfo id="veh1_3" depart="25.00" departLane="781684931#0_0" departPos="5.10" departSpeed="0.00" departDelay="0.00" arrival="140.00" arrivalLane="362985258#0_0" arrivalPos="52.30" arrivalSpeed="11.70" duration="115.00" routeLength="1225.65" waitingTime="0.00" waitingCount="0" stopTime="0.00" timeLoss="13.28" rerouteNo="0" devices="tripinfo_veh1_3" vType="DEFAULT_VEHTYPE" speedFactor="0.89" vaporized=""/>
    <tripinfo id="veh1_2" depart="25.00" departLane="358237489#0_0" departPos="5.10" departSpeed="0.00" departDelay="0.00" arrival="146.00" arrivalLane="781684931#0_0" arrivalPos="57.29" arrivalSpeed="13.77" duration="121.00" routeLength="2361.48" waitingTime="0.00" waitingCount="0" stopTime="0.00" timeLoss="27.38" rerouteNo="0" devices="tripinfo_veh1_2" vType="DEFAULT_VEHTYPE" speedFactor="1.05" vaporized=""/>
    <tripinfo id="veh3_2" depart="25.00" departLane="359244608#0_0" departPos="5.10" departSpeed="0.00" departDelay="0.00" arrival="152.00" arrivalLane="233703186#0_0" arrivalPos="230.12" arrivalSpeed="12.58" duration="127.00" routeLength="1200.82" waitingTime="0.00" waitingCount="0" stopTime="0.00" timeLoss="27.06" rerouteNo="0" devices="tripinfo_veh3_2" vType="DEFAULT_VEHTYPE" speedFactor="0.93" vaporized=""/>
    <tripinfo id="veh3_3" depart="25.00" departLane="233703186#0_0" departPos="5.10" departSpeed="0.00" departDelay="0.00" arrival="160.00" arrivalLane="539383768#2_0" arrivalPos="239.65" arrivalSpeed="23.52" duration="135.00" routeLength="1618.58" waitingTime="0.00" waitingCount="0" stopTime="0.00" timeLoss="28.67" rerouteNo="0" devices="tripinfo_veh3_3" vType="DEFAULT_VEHTYPE" speedFactor="0.88" vaporized=""/>
    <tripinfo id="veh9_2" depart="25.00" departLane="563175147#6_0" departPos="5.10" departSpeed="0.00" departDelay="0.00" arrival="161.00" arrivalLane="539383767#1_0" arrivalPos="58.17" arrivalSpeed="13.43" duration="136.00" routeLength="1150.11" waitingTime="49.00" waitingCount="2" stopTime="0.00" timeLoss="83.04" rerouteNo="0" devices="tripinfo_veh9_2" vType="DEFAULT_VEHTYPE" speedFactor="1.04" vaporized=""/>
    <tripinfo id="veh12_5" depart="25.00" departLane="562021794#1_0" departPos="5.10" departSpeed="0.00" departDelay="0.00" arrival="166.00" arrivalLane="-359409608_0" arrivalPos="135.48" arrivalSpeed="13.77" duration="141.00" routeLength="1864.03" waitingTime="15.00" waitingCount="1" stopTime="0.00" timeLoss="52.94" rerouteNo="0" devices="tripinfo_veh12_5" vType="DEFAULT_VEHTYPE" speedFactor="1.02" vaporized=""/>
    <tripinfo id="veh4_2" depart="25.00" departLane="676492822_0" departPos="5.10" departSpeed="0.00" departDelay="0.00" arrival="171.00" arrivalLane="563587627_0" arrivalPos="120.78" arrivalSpeed="14.08" duration="146.00" routeLength="2094.27" waitingTime="0.00" waitingCount="0" stopTime="0.00" timeLoss="32.22" rerouteNo="0" devices="tripinfo_veh4_2" vType="DEFAULT_VEHTYPE" speedFactor="1.02" vaporized=""/>
    <tripinfo id="veh5_5" depart="25.00" departLane="562021790#0_0" departPos="5.10" departSpeed="0.00" departDelay="0.00" arrival="171.00" arrivalLane="-359409608_0" arrivalPos="135.48" arrivalSpeed="12.18" duration="146.00" routeLength="1663.61" waitingTime="32.00" waitingCount="1" stopTime="0.00" timeLoss="60.63" rerouteNo="0" devices="tripinfo_veh5_5" vType="DEFAULT_VEHTYPE" speedFactor="0.95" vaporized=""/>
    <tripinfo id="veh9_4" depart="25.00" departLane="562430406#8_0" departPos="5.10" departSpeed="0.00" departDelay="0.00" arrival="173.00" arrivalLane="-359409608_0" arrivalPos="135.48" arrivalSpeed="12.67" duration="148.00" routeLength="1822.75" waitingTime="10.00" waitingCount="1" stopTime="0.00" timeLoss="45.82" rerouteNo="0" devices="tripinfo_veh9_4" vType="DEFAULT_VEHTYPE" speedFactor="1.00" vaporized=""/>
    <tripinfo id="veh1_1" depart="25.00" departLane="362985244#7_0" departPos="5.10" departSpeed="0.00" departDelay="0.00" arrival="174.00" arrivalLane="358237489#0_0" arrivalPos="86.17" arrivalSpeed="10.32" duration="149.00" routeLength="2494.42" waitingTime="0.00" waitingCount="0" stopTime="0.00" timeLoss="20.75" rerouteNo="0" devices="tripinfo_veh1_1" vType="DEFAULT_VEHTYPE" speedFactor="0.83" vaporized=""/>
    <tripinfo id="veh6_5" depart="25.00" departLane="154148013#6_0" departPos="5.10" departSpeed="0.00" departDelay="0.00" arrival="175.00" arrivalLane="-359409608_0" arrivalPos="135.48" arrivalSpeed="15.16" duration="150.00" routeLength="1539.72" waitingTime="37.00" waitingCount="1" stopTime="0.00" timeLoss="83.20" rerouteNo="0" devices="tripinfo_veh6_5" vType="DEFAULT_VEHTYPE" speedFactor="1.17" vaporized=""/>
    <tripinfo id="veh0_3" depart="25.00" departLane="766136200_0" departPos="5.10" departSpeed="0.00" departDelay="0.00" arrival="177.00" arrivalLane="-359409608_0" arrivalPos="135.48" arrivalSpeed="14.57" duration="152.00" routeLength="2377.68" waitingTime="10.00" waitingCount="1" stopTime="0.00" timeLoss="52.96" rerouteNo="0" devices="tripinfo_veh0_3" vType="DEFAULT_VEHTYPE" speedFactor="1.08" vaporized=""/>
    <tripinfo id="veh10_3" depart="25.00" departLane="539383768#6_0" departPos="5.10" departSpeed="0.00" departDelay="0.00" arrival="190.00" arrivalLane="-359408277#0_0" arrivalPos="175.18" arrivalSpeed="11.68" duration="165.00" routeLength="1878.52" waitingTime="31.00" waitingCount="1" stopTime="0.00" timeLoss="65.74" rerouteNo="0" devices="tripinfo_veh10_3" vType="DEFAULT_VEHTYPE" speedFactor="0.85" vaporized=""/>
    <tripinfo id="veh12_3" depart="25.00" departLane="398041366#1_0" departPos="5.10" departSpeed="0.00" departDelay="0.00" arrival="196.00" arrivalLane="359247813#2_0" arrivalPos="275.45" arrivalSpeed="14.48" duration="171.00" routeLength="1504.06" waitingTime="50.00" waitingCount="2" stopTime="0.00" timeLoss="87.08" rerouteNo="0" devices="tripinfo_veh12_3" vType="DEFAULT_VEHTYPE" speedFactor="1.08" vaporized=""/>
    <tripinfo id="veh11_3" depart="25.00" departLane="396051491#3_0" departPos="5.10" departSpeed="0.00" departDelay="0.00" arrival="208.00" arrivalLane="-359409608_0" arrivalPos="135.48" arrivalSpeed="11.37" duration="183.00" routeLength="3110.23" waitingTime="0.00" waitingCount="0" stopTime="0.00" timeLoss="33.96" rerouteNo="0" devices="tripinfo_veh11_3" vType="DEFAULT_VEHTYPE" speedFactor="0.90" vaporized=""/>
    <tripinfo id="veh8_3" depart="25.00" departLane="362347497#7_0" departPos="5.10" departSpeed="0.00" departDelay="0.00" arrival="214.00" arrivalLane="-359409608_0" arrivalPos="135.48" arrivalSpeed="12.35" duration="189.00" routeLength="2298.75" waitingTime="40.00" waitingCount="2" stopTime="0.00" timeLoss="76.44" rerouteNo="0" devices="tripinfo_veh8_3" vType="DEFAULT_VEHTYPE" speedFactor="0.96" vaporized=""/>
    <tripinfo id="veh5_2" depart="25.00" departLane="539383768#0_0" departPos="5.10" departSpeed="0.00" departDelay="0.00" arrival="217.00" arrivalLane="359246993#0_0" arrivalPos="70.96" arrivalSpeed="10.78" duration="192.00" routeLength="2714.83" waitingTime="0.00" waitingCount="0" stopTime="0.00" timeLoss="44.88" rerouteNo="0" devices="tripinfo_veh5_2" vType="DEFAULT_VEHTYPE" speedFactor="0.83" vaporized=""/>
    <tripinfo id="veh11_2" depart="25.00" departLane="359247300#1_0" departPos="5.10" departSpeed="0.00" departDelay="0.00" arrival="219.00" arrivalLane="396051491#3_1" arrivalPos="141.12" arrivalSpeed="26.98" duration="194.00" routeLength="3337.23" waitingTime="0.00" waitingCount="0" stopTime="0.00" timeLoss="47.23" rerouteNo="0" devices="tripinfo_veh11_2" vType="DEFAULT_VEHTYPE" speedFactor="1.00" vaporized=""/>
    <tripinfo id="veh6_4" depart="25.00" departLane="-484446266#8_0" departPos="5.10" departSpeed="0.00" departDelay="0.00" arrival="228.00" arrivalLane="154148013#6_0" arrivalPos="327.33" arrivalSpeed="27.05" duration="203.00" routeLength="2461.11" waitingTime="50.00" waitingCount="3" stopTime="0.00" timeLoss="93.23" rerouteNo="0" devices="tripinfo_veh6_4" vType="DEFAULT_VEHTYPE" speedFactor="1.01" vaporized=""/>
    <tripinfo id="veh11_0" depart="58.00" departLane="-359409608_0" departPos="5.10" departSpeed="0.00" departDelay="33.00" arrival="228.00" arrivalLane="560361514#6_0" arrivalPos="442.89" arrivalSpeed="30.33" duration="170.00" routeLength="3070.66" waitingTime="5.00" waitingCount="1" stopTime="0.00" timeLoss="50.95" rerouteNo="0" devices="tripinfo_veh11_0" vType="DEFAULT_VEHTYPE" speedFactor="1.10" vaporized=""/>
    <tripinfo id="veh6_0" depart="43.00" departLane="-359409608_0" departPos="5.10" departSpeed="0.00" departDelay="18.00" arrival="237.00" arrivalLane="154148014#2_0" arrivalPos="6.55" arrivalSpeed="25.60" duration="194.00" routeLength="3687.11" waitingTime="0.00" waitingCount="0" stopTime="0.00" timeLoss="59.45" rerouteNo="0" devices="tripinfo_veh6_0" vType="DEFAULT_VEHTYPE" speedFactor="1.13" vaporized=""/>
    <tripinfo id="veh10_5" depart="25.00" departLane="-675107653#5_0" departPos="5.10" departSpeed="0.00" departDelay="0.00" arrival="255.00" arrivalLane="-359409608_0" arrivalPos="135.48" arrivalSpeed="12.95" duration="230.00" routeLength="2108.53" waitingTime="78.00" waitingCount="3" stopTime="0.00" timeLoss="123.54" rerouteNo="0" devices="tripinfo_veh10_5" vType="DEFAULT_VEHTYPE" speedFactor="1.02" vaporized=""/>
    <tripinfo id="veh7_1" depart="25.00" departLane="-362985261#6_0" departPos="5.10" departSpeed="0.00" departDelay="0.00" arrival="263.00" arrivalLane="403676096#0_0" arrivalPos="281.18" arrivalSpeed="13.47" duration="238.00" routeLength="3749.10" waitingTime="0.00" waitingCount="0" stopTime="0.00" timeLoss="48.99" rerouteNo="0" devices="tripinfo_veh7_1" vType="DEFAULT_VEHTYPE" speedFactor="1.02" vaporized=""/>
    <tripinfo id="veh2_2" depart="25.00" departLane="363002237#4_0" departPos="5.10" departSpeed="0.00" departDelay="0.00" arrival="264.00" arrivalLane="562549612#1_0" arrivalPos="393.19" arrivalSpeed="12.97" duration="239.00" routeLength="3614.82" waitingTime="7.00" waitingCount="1" stopTime="0.00" timeLoss="62.78" rerouteNo="0" devices="tripinfo_veh2_2" vType="DEFAULT_VEHTYPE" speedFactor="1.03" vaporized=""/>
    <tripinfo id="veh10_0" depart="55.00" departLane="-359409608_0" departPos="5.10" departSpeed="0.00" departDelay="30.00" arrival="269.00" arrivalLane="757450364#0_0" arrivalPos="86.62" arrivalSpeed="19.77" duration="214.00" routeLength="3662.88" waitingTime="0.00" waitingCount="0" stopTime="0.00" timeLoss="30.74" rerouteNo="0" devices="tripinfo_veh10_0" vType="DEFAULT_VEHTYPE" speedFactor="0.90" vaporized=""/>
    <tripinfo id="veh8_2" depart="25.00" departLane="479199742#1_0" departPos="5.10" departSpeed="0.00" departDelay="0.00" arrival="280.00" arrivalLane="362347497#7_0" arrivalPos="149.91" arrivalSpeed="22.74" duration="255.00" routeLength="5401.59" waitingTime="0.00" waitingCount="0" stopTime="0.00" timeLoss="18.69" rerouteNo="0" devices="tripinfo_veh8_2" vType="DEFAULT_VEHTYPE" speedFactor="1.03" vaporized=""/>
    <tripinfo id="veh3_0" depart="34.00" departLane="-359409608_0" departPos="5.10" departSpeed="0.00" departDelay="9.00" arrival="286.00" arrivalLane="359244597#1_0" arrivalPos="33.77" arrivalSpeed="15.12" duration="252.00" routeLength="4255.51" waitingTime="3.00" waitingCount="1" stopTime="0.00" timeLoss="62.02" rerouteNo="0" devices="tripinfo_veh3_0" vType="DEFAULT_VEHTYPE" speedFactor="1.12" vaporized=""/>
    <tripinfo id="veh3_4" depart="25.00" departLane="539383768#2_0" departPos="5.10" departSpeed="0.00" departDelay="0.00" arrival="304.00" arrivalLane="-359409608_0" arrivalPos="135.48" arrivalSpeed="11.95" duration="279.00" routeLength="3219.35" waitingTime="83.00" waitingCount="4" stopTime="0.00" timeLoss="131.62" rerouteNo="0" devices="tripinfo_veh3_4" vType="DEFAULT_VEHTYPE" speedFactor="0.94" vaporized=""/>
    <tripinfo id="veh0_1" depart="25.00" departLane="363373882#0_0" departPos="5.10" departSpeed="0.00" departDelay="0.00" arrival="323.00" arrivalLane="168328152#0_0" arrivalPos="48.55" arrivalSpeed="12.25" duration="298.00" routeLength="4179.54" waitingTime="39.00" waitingCount="1" stopTime="0.00" timeLoss="83.13" rerouteNo="0" devices="tripinfo_veh0_1" vType="DEFAULT_VEHTYPE" speedFactor="0.94" vaporized=""/>
    <tripinfo id="veh4_3" depart="25.00" departLane="563587627_0" departPos="5.10" departSpeed="0.00" departDelay="0.00" arrival="345.00" arrivalLane="-359409608_0" arrivalPos="135.48" arrivalSpeed="13.80" duration="320.00" routeLength="4161.59" waitingTime="56.00" waitingCount="2" stopTime="0.00" timeLoss="115.54" rerouteNo="0" devices="tripinfo_veh4_3" vType="DEFAULT_VEHTYPE" speedFactor="1.01" vaporized=""/>
    <tripinfo id="veh2_3" depart="25.00" departLane="562549612#1_0" departPos="5.10" departSpeed="0.00" departDelay="0.00" arrival="348.00" arrivalLane="-359409608_0" arrivalPos="135.48" arrivalSpeed="14.21" duration="323.00" routeLength="3673.48" waitingTime="77.00" waitingCount="2" stopTime="0.00" timeLoss="139.03" rerouteNo="0" devices="tripinfo_veh2_3" vType="DEFAULT_VEHTYPE" speedFactor="1.05" vaporized=""/>
    <tripinfo id="veh4_0" depart="37.00" departLane="-359409608_0" departPos="5.10" departSpeed="0.00" departDelay="12.00" arrival="348.00" arrivalLane="-563587585#0_0" arrivalPos="28.41" arrivalSpeed="12.47" duration="311.00" routeLength="5168.47" waitingTime="2.00" waitingCount="1" stopTime="0.00" timeLoss="58.95" rerouteNo="0" devices="tripinfo_veh4_0" vType="DEFAULT_VEHTYPE" speedFactor="0.94" vaporized=""/>
    <tripinfo id="veh5_0" depart="40.00" departLane="-359409608_0" departPos="5.10" departSpeed="0.00" departDelay="15.00" arrival="354.00" arrivalLane="230291072_0" arrivalPos="179.75" arrivalSpeed="13.40" duration="314.00" routeLength="4684.61" waitingTime="31.00" waitingCount="1" stopTime="0.00" timeLoss="91.21" rerouteNo="0" devices="tripinfo_veh5_0" vType="DEFAULT_VEHTYPE" speedFactor="0.98" vaporized=""/>
    <tripinfo id="veh1_4" depart="25.00" departLane="362985258#0_0" departPos="5.10" departSpeed="0.00" departDelay="0.00" arrival="371.00" arrivalLane="-359409608_0" arrivalPos="135.48" arrivalSpeed="12.32" duration="346.00" routeLength="5248.19" waitingTime="36.00" waitingCount="1" stopTime="0.00" timeLoss="91.67" rerouteNo="0" devices="tripinfo_veh1_4" vType="DEFAULT_VEHTYPE" speedFactor="0.94" vaporized=""/>
    <tripinfo id="veh8_0" depart="49.00" departLane="-359409608_0" departPos="5.10" departSpeed="0.00" departDelay="24.00" arrival="379.00" arrivalLane="729152092#2_0" arrivalPos="908.74" arrivalSpeed="23.96" duration="330.00" routeLength="6320.95" waitingTime="5.00" waitingCount="1" stopTime="0.00" timeLoss="73.79" rerouteNo="0" devices="tripinfo_veh8_0" vType="DEFAULT_VEHTYPE" speedFactor="1.10" vaporized=""/>
    <tripinfo id="veh10_1" depart="25.00" departLane="757450364#0_0" departPos="5.10" departSpeed="0.00" departDelay="0.00" arrival="402.00" arrivalLane="539383765#3_0" arrivalPos="264.82" arrivalSpeed="11.16" duration="377.00" routeLength="4149.88" waitingTime="116.00" waitingCount="4" stopTime="0.00" timeLoss="159.72" rerouteNo="0" devices="tripinfo_veh10_1" vType="DEFAULT_VEHTYPE" speedFactor="0.88" vaporized=""/>
    <tripinfo id="veh2_0" depart="31.00" departLane="-359409608_0" departPos="5.10" departSpeed="0.00" departDelay="6.00" arrival="427.00" arrivalLane="-363359023#5_0" arrivalPos="55.81" arrivalSpeed="11.05" duration="396.00" routeLength="5264.47" waitingTime="65.00" waitingCount="3" stopTime="0.00" timeLoss="130.01" rerouteNo="0" devices="tripinfo_veh2_0" vType="DEFAULT_VEHTYPE" speedFactor="0.86" vaporized=""/>
    <tripinfo id="veh8_1" depart="25.00" departLane="729152092#2_0" departPos="5.10" departSpeed="0.00" departDelay="0.00" arrival="431.00" arrivalLane="479199742#1_0" arrivalPos="409.63" arrivalSpeed="18.72" duration="406.00" routeLength="6632.29" waitingTime="0.00" waitingCount="0" stopTime="0.00" timeLoss="35.78" rerouteNo="0" devices="tripinfo_veh8_1" vType="DEFAULT_VEHTYPE" speedFactor="0.90" vaporized=""/>
    <tripinfo id="veh1_0" depart="28.00" departLane="-359409608_0" departPos="5.10" departSpeed="0.00" departDelay="3.00" arrival="453.00" arrivalLane="362985244#7_0" arrivalPos="27.72" arrivalSpeed="13.17" duration="425.00" routeLength="7646.78" waitingTime="55.00" waitingCount="2" stopTime="0.00" timeLoss="128.23" rerouteNo="0" devices="tripinfo_veh1_0" vType="DEFAULT_VEHTYPE" speedFactor="1.03" vaporized=""/>
    <tripinfo id="veh0_0" depart="25.00" departLane="-359409608_0" departPos="5.10" departSpeed="0.00" departDelay="0.00" arrival="497.00" arrivalLane="363373882#0_0" arrivalPos="12.94" arrivalSpeed="14.17" duration="472.00" routeLength="7325.73" waitingTime="96.00" waitingCount="4" stopTime="0.00" timeLoss="169.26" rerouteNo="0" devices="tripinfo_veh0_0" vType="DEFAULT_VEHTYPE" speedFactor="1.06" vaporized=""/>
    <tripinfo id="veh7_0" depart="46.00" departLane="-359409608_0" departPos="5.10" departSpeed="0.00" departDelay="21.00" arrival="502.00" arrivalLane="-362985261#6_0" arrivalPos="61.07" arrivalSpeed="13.09" duration="456.00" routeLength="8061.59" waitingTime="26.00" waitingCount="1" stopTime="0.00" timeLoss="119.08" rerouteNo="0" devices="tripinfo_veh7_0" vType="DEFAULT_VEHTYPE" speedFactor="0.99" vaporized=""/>
    <tripinfo id="veh7_2" depart="25.00" departLane="403676096#0_0" departPos="5.10" departSpeed="0.00" departDelay="0.00" arrival="531.00" arrivalLane="359408298#2_0" arrivalPos="137.25" arrivalSpeed="13.05" duration="506.00" routeLength="3549.23" waitingTime="300.00" waitingCount="2" stopTime="0.00" timeLoss="347.36" rerouteNo="0" devices="tripinfo_veh7_2" vType="DEFAULT_VEHTYPE" speedFactor="0.97" vaporized=""/>
    <tripinfo id="veh10_4" depart="25.00" departLane="-359408277#0_0" departPos="5.10" departSpeed="0.00" departDelay="0.00" arrival="561.00" arrivalLane="-675107653#5_0" arrivalPos="68.60" arrivalSpeed="15.24" duration="536.00" routeLength="2785.73" waitingTime="387.00" waitingCount="3" stopTime="0.00" timeLoss="434.91" rerouteNo="0" devices="tripinfo_veh10_4" vType="DEFAULT_VEHTYPE" speedFactor="1.17" vaporized=""/>
    <tripinfo id="veh12_4" depart="25.00" departLane="359247813#2_0" departPos="5.10" departSpeed="0.00" departDelay="0.00" arrival="592.00" arrivalLane="562021794#1_0" arrivalPos="11.24" arrivalSpeed="12.36" duration="567.00" routeLength="997.73" waitingTime="467.00" waitingCount="4" stopTime="0.00" timeLoss="508.53" rerouteNo="0" devices="tripinfo_veh12_4" vType="DEFAULT_VEHTYPE" speedFactor="1.12" vaporized=""/>
    <tripinfo id="veh9_0" depart="52.00" departLane="-359409608_0" departPos="5.10" departSpeed="0.00" departDelay="27.00" arrival="657.00" arrivalLane="539383762#7_0" arrivalPos="169.23" arrivalSpeed="14.53" duration="605.00" routeLength="3436.67" waitingTime="375.00" waitingCount="4" stopTime="0.00" timeLoss="454.11" rerouteNo="0" devices="tripinfo_veh9_0" vType="DEFAULT_VEHTYPE" speedFactor="1.09" vaporized=""/>
    <tripinfo id="veh12_0" depart="61.00" departLane="-359409608_0" departPos="5.10" departSpeed="0.00" departDelay="36.00" arrival="687.00" arrivalLane="754594908#4_0" arrivalPos="190.58" arrivalSpeed="31.30" duration="626.00" routeLength="2677.46" waitingTime="450.00" waitingCount="6" stopTime="0.00" timeLoss="521.72" rerouteNo="0" devices="tripinfo_veh12_0" vType="DEFAULT_VEHTYPE" speedFactor="1.14" vaporized=""/>
</tripinfos>
