<?xml version="1.0" encoding="UTF-8"?>

<!-- generated on 06/04/21 21:40:00 by Eclipse SUMO sumo Version 1.8.0
<configuration xmlns:xsi="http://www.w3.org/2001/XMLSchema-instance" xsi:noNamespaceSchemaLocation="http://sumo.dlr.de/xsd/sumoConfiguration.xsd">

    <input>
        <net-file value="1\../BSD.net.xml"/>
        <route-files value="1\bsd_001.rou.xml"/>
        <additional-files value="1\dua_dump_001.add.xml"/>
    </input>

    <output>
        <summary-output value="1\summary_001.xml"/>
        <tripinfo-output value="1\tripinfo_001.xml"/>
    </output>

    <time>
        <begin value="0"/>
    </time>

    <processing>
        <route-steps value="200"/>
        <no-internal-links value="false"/>
        <time-to-teleport value="300"/>
        <time-to-teleport.highways value="0"/>
        <eager-insert value="false"/>
    </processing>

    <report>
        <verbose value="true"/>
        <no-warnings value="false"/>
        <log value="1\iteration_001.sumo.log"/>
        <no-step-log value="true"/>
    </report>

    <random_number>
        <random value="false"/>
    </random_number>

</configuration>
-->

<tripinfos xmlns:xsi="http://www.w3.org/2001/XMLSchema-instance" xsi:noNamespaceSchemaLocation="http://sumo.dlr.de/xsd/tripinfo_file.xsd">
    <tripinfo id="veh3_1" depart="25.00" departLane="154148014#2_0" departPos="5.10" departSpeed="0.00" departDelay="0.00" arrival="103.00" arrivalLane="359246993#0_0" arrivalPos="70.96" arrivalSpeed="11.57" duration="78.00" routeLength="748.89" waitingTime="0.00" waitingCount="0" stopTime="0.00" timeLoss="25.21" rerouteNo="0" devices="tripinfo_veh3_1" vType="DEFAULT_VEHTYPE" speedFactor="0.89" vaporized=""/>
    <tripinfo id="veh4_1" depart="25.00" departLane="-484446266#8_0" departPos="5.10" departSpeed="0.00" departDelay="0.00" arrival="113.00" arrivalLane="560361514#10_0" arrivalPos="202.28" arrivalSpeed="32.55" duration="88.00" routeLength="1587.70" waitingTime="0.00" waitingCount="0" stopTime="0.00" timeLoss="20.90" rerouteNo="0" devices="tripinfo_veh4_1" vType="DEFAULT_VEHTYPE" speedFactor="1.18" vaporized=""/>
    <tripinfo id="veh4_3" depart="25.00" departLane="754594908#4_0" departPos="5.10" departSpeed="0.00" departDelay="0.00" arrival="115.00" arrivalLane="562430406#8_0" arrivalPos="392.55" arrivalSpeed="13.30" duration="90.00" routeLength="1121.25" waitingTime="0.00" waitingCount="0" stopTime="0.00" timeLoss="17.10" rerouteNo="0" devices="tripinfo_veh4_3" vType="DEFAULT_VEHTYPE" speedFactor="1.01" vaporized=""/>
    <tripinfo id="veh1_7" depart="25.00" departLane="359408298#2_0" departPos="5.10" departSpeed="0.00" departDelay="0.00" arrival="124.00" arrivalLane="-359409608_0" arrivalPos="135.48" arrivalSpeed="14.58" duration="99.00" routeLength="1192.12" waitingTime="0.00" waitingCount="0" stopTime="0.00" timeLoss="27.25" rerouteNo="0" devices="tripinfo_veh1_7" vType="DEFAULT_VEHTYPE" speedFactor="1.12" vaporized=""/>
    <tripinfo id="veh2_6" depart="25.00" departLane="396051491#3_0" departPos="5.10" departSpeed="0.00" departDelay="0.00" arrival="128.00" arrivalLane="398041366#1_0" arrivalPos="85.07" arrivalSpeed="13.87" duration="103.00" routeLength="2231.52" waitingTime="0.00" waitingCount="0" stopTime="0.00" timeLoss="19.73" rerouteNo="0" devices="tripinfo_veh2_6" vType="DEFAULT_VEHTYPE" speedFactor="1.02" vaporized=""/>
    <tripinfo id="veh2_3" depart="25.00" departLane="562021794#1_0" departPos="5.10" departSpeed="0.00" departDelay="0.00" arrival="131.00" arrivalLane="562430406#8_0" arrivalPos="392.55" arrivalSpeed="12.39" duration="106.00" routeLength="1269.54" waitingTime="0.00" waitingCount="0" stopTime="0.00" timeLoss="20.33" rerouteNo="0" devices="tripinfo_veh2_3" vType="DEFAULT_VEHTYPE" speedFactor="0.94" vaporized=""/>
    <tripinfo id="veh4_5" depart="25.00" departLane="676492822_0" departPos="5.10" departSpeed="0.00" departDelay="0.00" arrival="133.00" arrivalLane="359247300#1_0" arrivalPos="219.61" arrivalSpeed="13.45" duration="108.00" routeLength="1677.43" waitingTime="0.00" waitingCount="0" stopTime="0.00" timeLoss="22.40" rerouteNo="0" devices="tripinfo_veh4_5" vType="DEFAULT_VEHTYPE" speedFactor="0.99" vaporized=""/>
    <tripinfo id="veh1_6" depart="25.00" departLane="766136200_0" departPos="5.10" departSpeed="0.00" departDelay="0.00" arrival="139.00" arrivalLane="359408298#2_0" arrivalPos="137.25" arrivalSpeed="14.35" duration="114.00" routeLength="1894.41" waitingTime="7.00" waitingCount="1" stopTime="0.00" timeLoss="36.38" rerouteNo="0" devices="tripinfo_veh1_6" vType="DEFAULT_VEHTYPE" speedFactor="1.05" vaporized=""/>
    <tripinfo id="veh3_2" depart="25.00" departLane="359246993#0_0" departPos="5.10" departSpeed="0.00" departDelay="0.00" arrival="165.00" arrivalLane="539383768#0_0" arrivalPos="201.66" arrivalSpeed="21.64" duration="140.00" routeLength="1404.20" waitingTime="0.00" waitingCount="0" stopTime="0.00" timeLoss="25.05" rerouteNo="0" devices="tripinfo_veh3_2" vType="DEFAULT_VEHTYPE" speedFactor="0.83" vaporized=""/>
    <tripinfo id="veh2_7" depart="25.00" departLane="398041366#1_0" departPos="5.10" departSpeed="0.00" departDelay="0.00" arrival="166.00" arrivalLane="-359409608_0" arrivalPos="135.48" arrivalSpeed="13.85" duration="141.00" routeLength="1695.34" waitingTime="9.00" waitingCount="1" stopTime="0.00" timeLoss="43.83" rerouteNo="0" devices="tripinfo_veh2_7" vType="DEFAULT_VEHTYPE" speedFactor="1.01" vaporized=""/>
    <tripinfo id="veh5_1" depart="25.00" departLane="362347497#7_0" departPos="5.10" departSpeed="0.00" departDelay="0.00" arrival="178.00" arrivalLane="154148013#6_0" arrivalPos="327.33" arrivalSpeed="31.68" duration="153.00" routeLength="2010.51" waitingTime="43.00" waitingCount="2" stopTime="0.00" timeLoss="85.52" rerouteNo="0" devices="tripinfo_veh5_1" vType="DEFAULT_VEHTYPE" speedFactor="1.18" vaporized=""/>
    <tripinfo id="veh0_3" depart="25.00" departLane="562021790#0_0" departPos="5.10" departSpeed="0.00" departDelay="0.00" arrival="185.00" arrivalLane="539383768#2_0" arrivalPos="239.65" arrivalSpeed="29.34" duration="160.00" routeLength="3514.32" waitingTime="2.00" waitingCount="1" stopTime="0.00" timeLoss="38.50" rerouteNo="0" devices="tripinfo_veh0_3" vType="DEFAULT_VEHTYPE" speedFactor="1.08" vaporized=""/>
    <tripinfo id="veh1_2" depart="25.00" departLane="359247300#0_0" departPos="5.10" departSpeed="0.00" departDelay="0.00" arrival="194.00" arrivalLane="562549612#1_0" arrivalPos="393.19" arrivalSpeed="12.78" duration="169.00" routeLength="2286.55" waitingTime="0.00" waitingCount="0" stopTime="0.00" timeLoss="31.37" rerouteNo="0" devices="tripinfo_veh1_2" vType="DEFAULT_VEHTYPE" speedFactor="0.94" vaporized=""/>
    <tripinfo id="veh2_4" depart="25.00" departLane="562430406#8_0" departPos="5.10" departSpeed="0.00" departDelay="0.00" arrival="196.00" arrivalLane="539383765#3_0" arrivalPos="264.82" arrivalSpeed="12.32" duration="171.00" routeLength="2664.39" waitingTime="0.00" waitingCount="0" stopTime="0.00" timeLoss="25.93" rerouteNo="0" devices="tripinfo_veh2_4" vType="DEFAULT_VEHTYPE" speedFactor="0.94" vaporized=""/>
    <tripinfo id="veh3_3" depart="25.00" departLane="539383768#0_0" departPos="5.10" departSpeed="0.00" departDelay="0.00" arrival="199.00" arrivalLane="560361514#6_0" arrivalPos="442.89" arrivalSpeed="24.03" duration="174.00" routeLength="3171.93" waitingTime="0.00" waitingCount="0" stopTime="0.00" timeLoss="36.85" rerouteNo="0" devices="tripinfo_veh3_3" vType="DEFAULT_VEHTYPE" speedFactor="0.87" vaporized=""/>
    <tripinfo id="veh4_2" depart="25.00" departLane="560361514#10_0" departPos="5.10" departSpeed="0.00" departDelay="0.00" arrival="202.00" arrivalLane="754594908#4_0" arrivalPos="190.58" arrivalSpeed="31.34" duration="177.00" routeLength="3747.23" waitingTime="25.00" waitingCount="2" stopTime="0.00" timeLoss="57.77" rerouteNo="0" devices="tripinfo_veh4_2" vType="DEFAULT_VEHTYPE" speedFactor="1.15" vaporized=""/>
    <tripinfo id="veh2_0" depart="31.00" departLane="-359409608_0" departPos="5.10" departSpeed="0.00" departDelay="6.00" arrival="210.00" arrivalLane="-359408277#0_0" arrivalPos="175.18" arrivalSpeed="13.15" duration="179.00" routeLength="2191.66" waitingTime="0.00" waitingCount="0" stopTime="0.00" timeLoss="25.58" rerouteNo="0" devices="tripinfo_veh2_0" vType="DEFAULT_VEHTYPE" speedFactor="0.99" vaporized=""/>
    <tripinfo id="veh4_0" depart="37.00" departLane="-359409608_0" departPos="5.10" departSpeed="0.00" departDelay="12.00" arrival="224.00" arrivalLane="-484446266#8_0" arrivalPos="248.85" arrivalSpeed="12.19" duration="187.00" routeLength="2959.40" waitingTime="2.00" waitingCount="1" stopTime="0.00" timeLoss="38.57" rerouteNo="0" devices="tripinfo_veh4_0" vType="DEFAULT_VEHTYPE" speedFactor="0.93" vaporized=""/>
    <tripinfo id="veh1_3" depart="25.00" departLane="562549612#1_0" departPos="5.10" departSpeed="0.00" departDelay="0.00" arrival="234.00" arrivalLane="359247813#2_0" arrivalPos="275.45" arrivalSpeed="11.06" duration="209.00" routeLength="2648.82" waitingTime="0.00" waitingCount="0" stopTime="0.00" timeLoss="30.37" rerouteNo="0" devices="tripinfo_veh1_3" vType="DEFAULT_VEHTYPE" speedFactor="0.86" vaporized=""/>
    <tripinfo id="veh3_0" depart="34.00" departLane="-359409608_0" departPos="5.10" departSpeed="0.00" departDelay="9.00" arrival="236.00" arrivalLane="154148014#2_0" arrivalPos="6.55" arrivalSpeed="23.15" duration="202.00" routeLength="3687.11" waitingTime="5.00" waitingCount="1" stopTime="0.00" timeLoss="44.99" rerouteNo="0" devices="tripinfo_veh3_0" vType="DEFAULT_VEHTYPE" speedFactor="0.98" vaporized=""/>
    <tripinfo id="veh5_2" depart="25.00" departLane="154148013#6_0" departPos="5.10" departSpeed="0.00" departDelay="0.00" arrival="249.00" arrivalLane="230291072_0" arrivalPos="179.75" arrivalSpeed="14.22" duration="224.00" routeLength="3754.42" waitingTime="37.00" waitingCount="1" stopTime="0.00" timeLoss="74.71" rerouteNo="0" devices="tripinfo_veh5_2" vType="DEFAULT_VEHTYPE" speedFactor="1.10" vaporized=""/>
    <tripinfo id="veh3_5" depart="25.00" departLane="539383762#7_0" departPos="5.10" departSpeed="0.00" departDelay="0.00" arrival="251.00" arrivalLane="539383767#1_0" arrivalPos="58.17" arrivalSpeed="12.37" duration="226.00" routeLength="904.36" waitingTime="146.00" waitingCount="3" stopTime="0.00" timeLoss="176.85" rerouteNo="0" devices="tripinfo_veh3_5" vType="DEFAULT_VEHTYPE" speedFactor="0.95" vaporized=""/>
    <tripinfo id="veh3_4" depart="25.00" departLane="560361514#6_0" departPos="5.10" departSpeed="0.00" departDelay="0.00" arrival="253.00" arrivalLane="539383762#7_0" arrivalPos="169.23" arrivalSpeed="12.18" duration="228.00" routeLength="3328.23" waitingTime="0.00" waitingCount="0" stopTime="0.00" timeLoss="33.77" rerouteNo="0" devices="tripinfo_veh3_4" vType="DEFAULT_VEHTYPE" speedFactor="0.92" vaporized=""/>
    <tripinfo id="veh4_4" depart="28.00" departLane="562430406#8_0" departPos="5.10" departSpeed="0.00" departDelay="3.00" arrival="275.00" arrivalLane="676492822_0" arrivalPos="72.78" arrivalSpeed="9.59" duration="247.00" routeLength="3109.20" waitingTime="45.00" waitingCount="2" stopTime="0.00" timeLoss="102.58" rerouteNo="0" devices="tripinfo_veh4_4" vType="DEFAULT_VEHTYPE" speedFactor="1.17" vaporized=""/>
    <tripinfo id="veh0_0" depart="25.00" departLane="-359409608_0" departPos="5.10" departSpeed="0.00" departDelay="0.00" arrival="300.00" arrivalLane="479199742#1_0" arrivalPos="409.63" arrivalSpeed="23.26" duration="275.00" routeLength="4707.16" waitingTime="38.00" waitingCount="1" stopTime="0.00" timeLoss="73.32" rerouteNo="0" devices="tripinfo_veh0_0" vType="DEFAULT_VEHTYPE" speedFactor="1.06" vaporized=""/>
    <tripinfo id="veh0_5" depart="25.00" departLane="781684931#0_0" departPos="5.10" departSpeed="0.00" departDelay="0.00" arrival="379.00" arrivalLane="-359409608_0" arrivalPos="135.48" arrivalSpeed="10.52" duration="354.00" routeLength="5234.95" waitingTime="19.00" waitingCount="1" stopTime="0.00" timeLoss="70.38" rerouteNo="0" devices="tripinfo_veh0_5" vType="DEFAULT_VEHTYPE" speedFactor="0.83" vaporized=""/>
    <tripinfo id="veh0_1" depart="25.00" departLane="479199742#1_0" departPos="5.10" departSpeed="0.00" departDelay="0.00" arrival="444.00" arrivalLane="539383768#6_0" arrivalPos="45.63" arrivalSpeed="16.77" duration="419.00" routeLength="6327.98" waitingTime="77.00" waitingCount="2" stopTime="0.00" timeLoss="117.32" rerouteNo="0" devices="tripinfo_veh0_1" vType="DEFAULT_VEHTYPE" speedFactor="0.94" vaporized=""/>
    <tripinfo id="veh1_5" depart="25.00" departLane="-675107653#5_0" departPos="5.10" departSpeed="0.00" departDelay="0.00" arrival="549.00" arrivalLane="766136200_0" arrivalPos="53.47" arrivalSpeed="20.41" duration="524.00" routeLength="2627.72" waitingTime="380.00" waitingCount="4" stopTime="0.00" timeLoss="415.57" rerouteNo="0" devices="tripinfo_veh1_5" vType="DEFAULT_VEHTYPE" speedFactor="1.03" vaporized=""/>
    <tripinfo id="veh4_6" depart="25.00" departLane="359247300#1_0" departPos="5.10" departSpeed="0.00" departDelay="0.00" arrival="556.00" arrivalLane="-359409608_0" arrivalPos="135.48" arrivalSpeed="13.39" duration="531.00" routeLength="3871.70" waitingTime="306.00" waitingCount="2" stopTime="0.00" timeLoss="350.07" rerouteNo="0" devices="tripinfo_veh4_6" vType="DEFAULT_VEHTYPE" speedFactor="1.02" vaporized=""/>
    <tripinfo id="veh3_6" depart="25.00" departLane="539383767#1_0" departPos="5.10" departSpeed="0.00" departDelay="0.00" arrival="558.00" arrivalLane="-359409608_0" arrivalPos="135.48" arrivalSpeed="15.39" duration="533.00" routeLength="2054.82" waitingTime="359.00" waitingCount="4" stopTime="0.00" timeLoss="424.12" rerouteNo="0" devices="tripinfo_veh3_6" vType="DEFAULT_VEHTYPE" speedFactor="1.13" vaporized=""/>
    <tripinfo id="veh1_0" depart="28.00" departLane="-359409608_0" departPos="5.10" departSpeed="0.00" departDelay="3.00" arrival="572.00" arrivalLane="563175147#6_0" arrivalPos="123.61" arrivalSpeed="21.99" duration="544.00" routeLength="2803.54" waitingTime="370.00" waitingCount="4" stopTime="0.00" timeLoss="421.48" rerouteNo="0" devices="tripinfo_veh1_0" vType="DEFAULT_VEHTYPE" speedFactor="1.05" vaporized=""/>
    <tripinfo id="veh5_3" depart="25.00" departLane="230291072_0" departPos="5.10" departSpeed="0.00" departDelay="0.00" arrival="586.00" arrivalLane="363002237#4_0" arrivalPos="45.42" arrivalSpeed="12.13" duration="561.00" routeLength="6293.08" waitingTime="182.00" waitingCount="6" stopTime="0.00" timeLoss="260.69" rerouteNo="0" devices="tripinfo_veh5_3" vType="DEFAULT_VEHTYPE" speedFactor="0.90" vaporized=""/>
    <tripinfo id="veh5_0" depart="40.00" departLane="-359409608_0" departPos="5.10" departSpeed="0.00" departDelay="15.00" arrival="869.00" arrivalLane="362347497#7_0" arrivalPos="149.91" arrivalSpeed="20.83" duration="829.00" routeLength="3156.62" waitingTime="630.00" waitingCount="2" stopTime="0.00" timeLoss="677.87" rerouteNo="0" devices="tripinfo_veh5_0" vType="DEFAULT_VEHTYPE" speedFactor="0.97" vaporized=""/>
    <tripinfo id="veh1_1" depart="25.00" departLane="563175147#6_0" departPos="5.10" departSpeed="0.00" departDelay="0.00" arrival="901.00" arrivalLane="359247300#0_0" arrivalPos="161.40" arrivalSpeed="11.87" duration="876.00" routeLength="3894.69" waitingTime="652.00" waitingCount="6" stopTime="0.00" timeLoss="696.28" rerouteNo="0" devices="tripinfo_veh1_1" vType="DEFAULT_VEHTYPE" speedFactor="0.89" vaporized=""/>
    <tripinfo id="veh0_2" depart="25.00" departLane="539383768#6_0" departPos="5.10" departSpeed="0.00" departDelay="0.00" arrival="928.00" arrivalLane="562021790#0_0" arrivalPos="53.64" arrivalSpeed="27.79" duration="903.00" routeLength="2994.55" waitingTime="735.00" waitingCount="6" stopTime="0.00" timeLoss="791.84" rerouteNo="0" devices="tripinfo_veh0_2" vType="DEFAULT_VEHTYPE" speedFactor="1.01" vaporized=""/>
    <tripinfo id="veh1_4" depart="25.00" departLane="359247813#2_0" departPos="5.10" departSpeed="0.00" departDelay="0.00" arrival="930.00" arrivalLane="-675107653#5_0" arrivalPos="68.60" arrivalSpeed="14.65" duration="905.00" routeLength="2288.66" waitingTime="730.00" waitingCount="5" stopTime="0.00" timeLoss="791.43" rerouteNo="0" devices="tripinfo_veh1_4" vType="DEFAULT_VEHTYPE" speedFactor="1.09" vaporized=""/>
    <tripinfo id="veh2_2" depart="25.00" departLane="563587627_0" departPos="5.10" departSpeed="0.00" departDelay="0.00" arrival="950.00" arrivalLane="562021794#1_0" arrivalPos="11.24" arrivalSpeed="12.37" duration="925.00" routeLength="3137.08" waitingTime="690.00" waitingCount="7" stopTime="0.00" timeLoss="752.34" rerouteNo="0" devices="tripinfo_veh2_2" vType="DEFAULT_VEHTYPE" speedFactor="0.88" vaporized=""/>
    <tripinfo id="veh2_1" depart="25.00" departLane="-359408277#0_0" departPos="5.10" departSpeed="0.00" departDelay="0.00" arrival="967.00" arrivalLane="563587627_0" arrivalPos="120.78" arrivalSpeed="11.81" duration="942.00" routeLength="4440.98" waitingTime="664.00" waitingCount="6" stopTime="0.00" timeLoss="724.58" rerouteNo="0" devices="tripinfo_veh2_1" vType="DEFAULT_VEHTYPE" speedFactor="0.93" vaporized=""/>
    <tripinfo id="veh5_4" depart="25.00" departLane="363002237#4_0" departPos="5.10" departSpeed="0.00" departDelay="0.00" arrival="984.00" arrivalLane="-359409608_0" arrivalPos="135.48" arrivalSpeed="14.28" duration="959.00" routeLength="3985.45" waitingTime="718.00" waitingCount="3" stopTime="0.00" timeLoss="781.74" rerouteNo="0" devices="tripinfo_veh5_4" vType="DEFAULT_VEHTYPE" speedFactor="1.03" vaporized=""/>
    <tripinfo id="veh2_5" depart="25.00" departLane="539383765#3_0" departPos="5.10" departSpeed="0.00" departDelay="0.00" arrival="997.00" arrivalLane="396051491#3_0" arrivalPos="141.12" arrivalSpeed="27.21" duration="972.00" routeLength="3718.97" waitingTime="735.00" waitingCount="6" stopTime="0.00" timeLoss="812.31" rerouteNo="0" devices="tripinfo_veh2_5" vType="DEFAULT_VEHTYPE" speedFactor="1.16" vaporized=""/>
    <tripinfo id="veh0_4" depart="25.00" departLane="539383768#2_0" departPos="5.10" departSpeed="0.00" departDelay="0.00" arrival="1253.00" arrivalLane="781684931#0_0" arrivalPos="57.29" arrivalSpeed="14.25" duration="1228.00" routeLength="8163.87" waitingTime="800.00" waitingCount="9" stopTime="0.00" timeLoss="898.94" rerouteNo="0" devices="tripinfo_veh0_4" vType="DEFAULT_VEHTYPE" speedFactor="1.03" vaporized=""/>
</tripinfos>
