<?xml version="1.0" encoding="UTF-8"?>

<!-- generated on 06/05/21 09:09:05 by Eclipse SUMO sumo Version 1.8.0
<configuration xmlns:xsi="http://www.w3.org/2001/XMLSchema-instance" xsi:noNamespaceSchemaLocation="http://sumo.dlr.de/xsd/sumoConfiguration.xsd">

    <input>
        <net-file value="0\../BSD.net.xml"/>
        <route-files value="0\bsd_000.rou.xml"/>
        <additional-files value="0\dua_dump_000.add.xml"/>
    </input>

    <output>
        <summary-output value="0\summary_000.xml"/>
        <tripinfo-output value="0\tripinfo_000.xml"/>
    </output>

    <time>
        <begin value="0"/>
    </time>

    <processing>
        <route-steps value="200"/>
        <no-internal-links value="false"/>
        <time-to-teleport value="300"/>
        <time-to-teleport.highways value="0"/>
        <eager-insert value="false"/>
    </processing>

    <report>
        <verbose value="true"/>
        <no-warnings value="false"/>
        <log value="0\iteration_000.sumo.log"/>
        <no-step-log value="true"/>
    </report>

    <random_number>
        <random value="false"/>
    </random_number>

</configuration>
-->

<tripinfos xmlns:xsi="http://www.w3.org/2001/XMLSchema-instance" xsi:noNamespaceSchemaLocation="http://sumo.dlr.de/xsd/tripinfo_file.xsd">
    <tripinfo id="veh7_4" depart="25.00" departLane="560361514#10_0" departPos="5.10" departSpeed="0.00" departDelay="0.00" arrival="56.00" arrivalLane="359247300#0_0" arrivalPos="161.40" arrivalSpeed="15.77" duration="31.00" routeLength="458.92" waitingTime="0.00" waitingCount="0" stopTime="0.00" timeLoss="10.63" rerouteNo="0" devices="tripinfo_veh7_4" vType="DEFAULT_VEHTYPE" speedFactor="1.17" vaporized=""/>
    <tripinfo id="veh0_1" depart="25.00" departLane="562021790#0_0" departPos="5.10" departSpeed="0.00" departDelay="0.00" arrival="78.00" arrivalLane="359247813#2_0" arrivalPos="275.45" arrivalSpeed="12.52" duration="53.00" routeLength="638.95" waitingTime="0.00" waitingCount="0" stopTime="0.00" timeLoss="11.07" rerouteNo="0" devices="tripinfo_veh0_1" vType="DEFAULT_VEHTYPE" speedFactor="0.94" vaporized=""/>
    <tripinfo id="veh4_5" depart="25.00" departLane="562021794#1_0" departPos="5.10" departSpeed="0.00" departDelay="0.00" arrival="83.00" arrivalLane="398041366#1_0" arrivalPos="85.07" arrivalSpeed="16.08" duration="58.00" routeLength="974.34" waitingTime="0.00" waitingCount="0" stopTime="0.00" timeLoss="21.33" rerouteNo="0" devices="tripinfo_veh4_5" vType="DEFAULT_VEHTYPE" speedFactor="1.17" vaporized=""/>
    <tripinfo id="veh6_1" depart="25.00" departLane="154148013#6_0" departPos="5.10" departSpeed="0.00" departDelay="0.00" arrival="105.00" arrivalLane="560361514#6_0" arrivalPos="442.89" arrivalSpeed="29.76" duration="80.00" routeLength="2140.47" waitingTime="0.00" waitingCount="0" stopTime="0.00" timeLoss="9.12" rerouteNo="0" devices="tripinfo_veh6_1" vType="DEFAULT_VEHTYPE" speedFactor="1.09" vaporized=""/>
    <tripinfo id="veh8_1" depart="25.00" departLane="539383768#0_0" departPos="5.10" departSpeed="0.00" departDelay="0.00" arrival="120.00" arrivalLane="230291072_0" arrivalPos="179.75" arrivalSpeed="13.65" duration="95.00" routeLength="1109.67" waitingTime="0.00" waitingCount="0" stopTime="0.00" timeLoss="25.23" rerouteNo="0" devices="tripinfo_veh8_1" vType="DEFAULT_VEHTYPE" speedFactor="1.00" vaporized=""/>
    <tripinfo id="veh7_5" depart="25.00" departLane="359247300#0_0" departPos="5.10" departSpeed="0.00" departDelay="0.00" arrival="123.00" arrivalLane="-484446266#8_0" arrivalPos="248.85" arrivalSpeed="13.59" duration="98.00" routeLength="1589.43" waitingTime="0.00" waitingCount="0" stopTime="0.00" timeLoss="17.28" rerouteNo="0" devices="tripinfo_veh7_5" vType="DEFAULT_VEHTYPE" speedFactor="1.02" vaporized=""/>
    <tripinfo id="veh7_3" depart="25.00" departLane="359244608#0_0" departPos="5.10" departSpeed="0.00" departDelay="0.00" arrival="129.00" arrivalLane="560361514#10_0" arrivalPos="202.28" arrivalSpeed="22.80" duration="104.00" routeLength="1360.75" waitingTime="0.00" waitingCount="0" stopTime="0.00" timeLoss="26.50" rerouteNo="0" devices="tripinfo_veh7_3" vType="DEFAULT_VEHTYPE" speedFactor="0.85" vaporized=""/>
    <tripinfo id="veh1_1" depart="25.00" departLane="539383765#3_0" departPos="5.10" departSpeed="0.00" departDelay="0.00" arrival="135.00" arrivalLane="362347497#7_0" arrivalPos="149.91" arrivalSpeed="20.47" duration="110.00" routeLength="1756.35" waitingTime="0.00" waitingCount="0" stopTime="0.00" timeLoss="18.67" rerouteNo="0" devices="tripinfo_veh1_1" vType="DEFAULT_VEHTYPE" speedFactor="0.94" vaporized=""/>
    <tripinfo id="veh6_0" depart="43.00" departLane="-359409608_0" departPos="5.10" departSpeed="0.00" departDelay="18.00" arrival="139.00" arrivalLane="154148013#6_0" arrivalPos="327.33" arrivalSpeed="26.09" duration="96.00" routeLength="1252.42" waitingTime="0.00" waitingCount="0" stopTime="0.00" timeLoss="27.26" rerouteNo="0" devices="tripinfo_veh6_0" vType="DEFAULT_VEHTYPE" speedFactor="0.96" vaporized=""/>
    <tripinfo id="veh1_3" depart="25.00" departLane="359246993#0_0" departPos="5.10" departSpeed="0.00" departDelay="0.00" arrival="161.00" arrivalLane="562549612#1_0" arrivalPos="393.19" arrivalSpeed="14.32" duration="136.00" routeLength="2182.00" waitingTime="0.00" waitingCount="0" stopTime="0.00" timeLoss="31.41" rerouteNo="0" devices="tripinfo_veh1_3" vType="DEFAULT_VEHTYPE" speedFactor="1.09" vaporized=""/>
    <tripinfo id="veh3_4" depart="25.00" departLane="359244597#1_0" departPos="5.10" departSpeed="0.00" departDelay="0.00" arrival="162.00" arrivalLane="359247300#1_0" arrivalPos="219.61" arrivalSpeed="12.18" duration="137.00" routeLength="1612.04" waitingTime="0.00" waitingCount="0" stopTime="0.00" timeLoss="32.70" rerouteNo="0" devices="tripinfo_veh3_4" vType="DEFAULT_VEHTYPE" speedFactor="0.92" vaporized=""/>
    <tripinfo id="veh1_7" depart="25.00" departLane="562430406#8_0" departPos="5.10" departSpeed="0.00" departDelay="0.00" arrival="166.00" arrivalLane="-359409608_0" arrivalPos="135.48" arrivalSpeed="12.99" duration="141.00" routeLength="1822.75" waitingTime="3.00" waitingCount="1" stopTime="0.00" timeLoss="38.80" rerouteNo="0" devices="tripinfo_veh1_7" vType="DEFAULT_VEHTYPE" speedFactor="0.99" vaporized=""/>
    <tripinfo id="veh4_6" depart="25.00" departLane="398041366#1_0" departPos="5.10" departSpeed="0.00" departDelay="0.00" arrival="169.00" arrivalLane="-359409608_0" arrivalPos="135.48" arrivalSpeed="12.79" duration="144.00" routeLength="1695.34" waitingTime="8.00" waitingCount="1" stopTime="0.00" timeLoss="46.39" rerouteNo="0" devices="tripinfo_veh4_6" vType="DEFAULT_VEHTYPE" speedFactor="0.99" vaporized=""/>
    <tripinfo id="veh2_6" depart="25.00" departLane="766136200_0" departPos="5.10" departSpeed="0.00" departDelay="0.00" arrival="173.00" arrivalLane="-359409608_0" arrivalPos="135.48" arrivalSpeed="13.51" duration="148.00" routeLength="2377.68" waitingTime="6.00" waitingCount="1" stopTime="0.00" timeLoss="41.45" rerouteNo="0" devices="tripinfo_veh2_6" vType="DEFAULT_VEHTYPE" speedFactor="1.01" vaporized=""/>
    <tripinfo id="veh0_0" depart="25.00" departLane="-359409608_0" departPos="5.10" departSpeed="0.00" departDelay="0.00" arrival="208.00" arrivalLane="562021790#0_0" arrivalPos="53.64" arrivalSpeed="28.67" duration="183.00" routeLength="2971.04" waitingTime="19.00" waitingCount="1" stopTime="0.00" timeLoss="61.18" rerouteNo="0" devices="tripinfo_veh0_0" vType="DEFAULT_VEHTYPE" speedFactor="1.06" vaporized=""/>
    <tripinfo id="veh0_6" depart="25.00" departLane="-359408277#0_0" departPos="5.10" departSpeed="0.00" departDelay="0.00" arrival="209.00" arrivalLane="-359409608_0" arrivalPos="135.48" arrivalSpeed="13.28" duration="184.00" routeLength="2512.00" waitingTime="31.00" waitingCount="1" stopTime="0.00" timeLoss="70.56" rerouteNo="0" devices="tripinfo_veh0_6" vType="DEFAULT_VEHTYPE" speedFactor="1.05" vaporized=""/>
    <tripinfo id="veh4_3" depart="25.00" departLane="154148014#2_0" departPos="5.10" departSpeed="0.00" departDelay="0.00" arrival="209.00" arrivalLane="539383762#7_0" arrivalPos="169.23" arrivalSpeed="15.14" duration="184.00" routeLength="3942.67" waitingTime="0.00" waitingCount="0" stopTime="0.00" timeLoss="41.96" rerouteNo="0" devices="tripinfo_veh4_3" vType="DEFAULT_VEHTYPE" speedFactor="1.15" vaporized=""/>
    <tripinfo id="veh5_4" depart="25.00" departLane="-675107653#5_0" departPos="5.10" departSpeed="0.00" departDelay="0.00" arrival="215.00" arrivalLane="539383767#1_0" arrivalPos="58.17" arrivalSpeed="11.59" duration="190.00" routeLength="2163.95" waitingTime="40.00" waitingCount="2" stopTime="0.00" timeLoss="83.05" rerouteNo="0" devices="tripinfo_veh5_4" vType="DEFAULT_VEHTYPE" speedFactor="0.90" vaporized=""/>
    <tripinfo id="veh2_2" depart="28.00" departLane="562430406#8_0" departPos="5.10" departSpeed="0.00" departDelay="3.00" arrival="222.00" arrivalLane="539383768#6_0" arrivalPos="45.63" arrivalSpeed="15.70" duration="194.00" routeLength="2156.75" waitingTime="47.00" waitingCount="3" stopTime="0.00" timeLoss="90.49" rerouteNo="0" devices="tripinfo_veh2_2" vType="DEFAULT_VEHTYPE" speedFactor="0.94" vaporized=""/>
    <tripinfo id="veh0_3" depart="25.00" departLane="781684931#0_0" departPos="5.10" departSpeed="0.00" departDelay="0.00" arrival="235.00" arrivalLane="403676096#0_0" arrivalPos="281.18" arrivalSpeed="14.22" duration="210.00" routeLength="3549.87" waitingTime="0.00" waitingCount="0" stopTime="0.00" timeLoss="44.92" rerouteNo="0" devices="tripinfo_veh0_3" vType="DEFAULT_VEHTYPE" speedFactor="1.08" vaporized=""/>
    <tripinfo id="veh1_6" depart="25.00" departLane="563587627_0" departPos="5.10" departSpeed="0.00" departDelay="0.00" arrival="239.00" arrivalLane="562430406#8_0" arrivalPos="392.55" arrivalSpeed="14.84" duration="214.00" routeLength="3567.10" waitingTime="0.00" waitingCount="0" stopTime="0.00" timeLoss="38.13" rerouteNo="0" devices="tripinfo_veh1_6" vType="DEFAULT_VEHTYPE" speedFactor="1.12" vaporized=""/>
    <tripinfo id="veh7_1" depart="25.00" departLane="233703205#1_0" departPos="5.10" departSpeed="0.00" departDelay="0.00" arrival="242.00" arrivalLane="-563587585#0_0" arrivalPos="28.41" arrivalSpeed="11.72" duration="217.00" routeLength="3595.40" waitingTime="0.00" waitingCount="0" stopTime="0.00" timeLoss="42.30" rerouteNo="0" devices="tripinfo_veh7_1" vType="DEFAULT_VEHTYPE" speedFactor="0.88" vaporized=""/>
    <tripinfo id="veh2_5" depart="25.00" departLane="754594908#4_0" departPos="5.10" departSpeed="0.00" departDelay="0.00" arrival="251.00" arrivalLane="766136200_0" arrivalPos="53.47" arrivalSpeed="17.89" duration="226.00" routeLength="3278.84" waitingTime="59.00" waitingCount="2" stopTime="0.00" timeLoss="104.90" rerouteNo="0" devices="tripinfo_veh2_5" vType="DEFAULT_VEHTYPE" speedFactor="1.02" vaporized=""/>
    <tripinfo id="veh5_0" depart="40.00" departLane="-359409608_0" departPos="5.10" departSpeed="0.00" departDelay="15.00" arrival="251.00" arrivalLane="396051491#3_0" arrivalPos="141.12" arrivalSpeed="28.09" duration="211.00" routeLength="3705.71" waitingTime="0.00" waitingCount="0" stopTime="0.00" timeLoss="58.72" rerouteNo="0" devices="tripinfo_veh5_0" vType="DEFAULT_VEHTYPE" speedFactor="1.02" vaporized=""/>
    <tripinfo id="veh4_1" depart="25.00" departLane="362985244#7_0" departPos="5.10" departSpeed="0.00" departDelay="0.00" arrival="270.00" arrivalLane="-363359023#5_0" arrivalPos="55.81" arrivalSpeed="12.38" duration="245.00" routeLength="4483.17" waitingTime="0.00" waitingCount="0" stopTime="0.00" timeLoss="39.99" rerouteNo="0" devices="tripinfo_veh4_1" vType="DEFAULT_VEHTYPE" speedFactor="0.93" vaporized=""/>
    <tripinfo id="veh4_2" depart="25.00" departLane="-363359023#5_0" departPos="5.10" departSpeed="0.00" departDelay="0.00" arrival="275.00" arrivalLane="154148014#2_0" arrivalPos="6.55" arrivalSpeed="26.02" duration="250.00" routeLength="5033.11" waitingTime="0.00" waitingCount="0" stopTime="0.00" timeLoss="73.56" rerouteNo="0" devices="tripinfo_veh4_2" vType="DEFAULT_VEHTYPE" speedFactor="1.18" vaporized=""/>
    <tripinfo id="veh7_0" depart="46.00" departLane="-359409608_0" departPos="5.10" departSpeed="0.00" departDelay="21.00" arrival="276.00" arrivalLane="233703205#1_0" arrivalPos="81.35" arrivalSpeed="12.34" duration="230.00" routeLength="3647.79" waitingTime="0.00" waitingCount="0" stopTime="0.00" timeLoss="40.51" rerouteNo="0" devices="tripinfo_veh7_0" vType="DEFAULT_VEHTYPE" speedFactor="0.90" vaporized=""/>
    <tripinfo id="veh7_2" depart="25.00" departLane="-563587585#0_0" departPos="5.10" departSpeed="0.00" departDelay="0.00" arrival="278.00" arrivalLane="359244608#0_0" arrivalPos="92.62" arrivalSpeed="11.49" duration="253.00" routeLength="3922.94" waitingTime="0.00" waitingCount="0" stopTime="0.00" timeLoss="40.62" rerouteNo="0" devices="tripinfo_veh7_2" vType="DEFAULT_VEHTYPE" speedFactor="0.85" vaporized=""/>
    <tripinfo id="veh8_3" depart="25.00" departLane="358237489#0_0" departPos="5.10" departSpeed="0.00" departDelay="0.00" arrival="291.00" arrivalLane="676492822_0" arrivalPos="72.78" arrivalSpeed="8.36" duration="266.00" routeLength="4130.90" waitingTime="35.00" waitingCount="1" stopTime="0.00" timeLoss="99.21" rerouteNo="0" devices="tripinfo_veh8_3" vType="DEFAULT_VEHTYPE" speedFactor="1.14" vaporized=""/>
    <tripinfo id="veh1_4" depart="25.00" departLane="562549612#1_0" departPos="5.10" departSpeed="0.00" departDelay="0.00" arrival="302.00" arrivalLane="563175147#6_0" arrivalPos="123.61" arrivalSpeed="22.37" duration="277.00" routeLength="3996.13" waitingTime="40.00" waitingCount="2" stopTime="0.00" timeLoss="89.57" rerouteNo="0" devices="tripinfo_veh1_4" vType="DEFAULT_VEHTYPE" speedFactor="1.03" vaporized=""/>
    <tripinfo id="veh5_1" depart="25.00" departLane="396051491#3_0" departPos="5.10" departSpeed="0.00" departDelay="0.00" arrival="314.00" arrivalLane="757450364#0_0" arrivalPos="86.62" arrivalSpeed="20.91" duration="289.00" routeLength="5650.04" waitingTime="29.00" waitingCount="1" stopTime="0.00" timeLoss="63.68" rerouteNo="0" devices="tripinfo_veh5_1" vType="DEFAULT_VEHTYPE" speedFactor="0.97" vaporized=""/>
    <tripinfo id="veh2_3" depart="25.00" departLane="539383768#6_0" departPos="5.10" departSpeed="0.00" departDelay="0.00" arrival="320.00" arrivalLane="233703186#0_0" arrivalPos="230.12" arrivalSpeed="12.34" duration="295.00" routeLength="3471.40" waitingTime="69.00" waitingCount="2" stopTime="0.00" timeLoss="113.54" rerouteNo="0" devices="tripinfo_veh2_3" vType="DEFAULT_VEHTYPE" speedFactor="0.94" vaporized=""/>
    <tripinfo id="veh3_3" depart="25.00" departLane="359408298#2_0" departPos="5.10" departSpeed="0.00" departDelay="0.00" arrival="322.00" arrivalLane="359244597#1_0" arrivalPos="33.77" arrivalSpeed="11.64" duration="297.00" routeLength="3906.97" waitingTime="24.00" waitingCount="1" stopTime="0.00" timeLoss="67.49" rerouteNo="0" devices="tripinfo_veh3_3" vType="DEFAULT_VEHTYPE" speedFactor="0.87" vaporized=""/>
    <tripinfo id="veh5_2" depart="25.00" departLane="757450364#0_0" departPos="5.10" departSpeed="0.00" departDelay="0.00" arrival="401.00" arrivalLane="539383768#2_0" arrivalPos="239.65" arrivalSpeed="32.29" duration="376.00" routeLength="5158.95" waitingTime="146.00" waitingCount="4" stopTime="0.00" timeLoss="201.17" rerouteNo="0" devices="tripinfo_veh5_2" vType="DEFAULT_VEHTYPE" speedFactor="1.18" vaporized=""/>
    <tripinfo id="veh0_4" depart="25.00" departLane="403676096#0_0" departPos="5.10" departSpeed="0.00" departDelay="0.00" arrival="412.00" arrivalLane="363373882#0_0" arrivalPos="12.94" arrivalSpeed="13.13" duration="387.00" routeLength="5252.93" waitingTime="95.00" waitingCount="3" stopTime="0.00" timeLoss="155.29" rerouteNo="0" devices="tripinfo_veh0_4" vType="DEFAULT_VEHTYPE" speedFactor="1.03" vaporized=""/>
    <tripinfo id="veh2_4" depart="25.00" departLane="233703186#0_0" departPos="5.10" departSpeed="0.00" departDelay="0.00" arrival="428.00" arrivalLane="754594908#4_0" arrivalPos="190.58" arrivalSpeed="31.55" duration="403.00" routeLength="3238.40" waitingTime="204.00" waitingCount="4" stopTime="0.00" timeLoss="269.36" rerouteNo="0" devices="tripinfo_veh2_4" vType="DEFAULT_VEHTYPE" speedFactor="1.16" vaporized=""/>
    <tripinfo id="veh4_0" depart="37.00" departLane="-359409608_0" departPos="5.10" departSpeed="0.00" departDelay="12.00" arrival="441.00" arrivalLane="362985244#7_0" arrivalPos="27.72" arrivalSpeed="15.48" duration="404.00" routeLength="7645.10" waitingTime="38.00" waitingCount="1" stopTime="0.00" timeLoss="133.17" rerouteNo="0" devices="tripinfo_veh4_0" vType="DEFAULT_VEHTYPE" speedFactor="1.13" vaporized=""/>
    <tripinfo id="veh6_3" depart="25.00" departLane="168328152#0_0" departPos="5.10" departSpeed="0.00" departDelay="0.00" arrival="445.00" arrivalLane="479199742#1_0" arrivalPos="409.63" arrivalSpeed="22.93" duration="420.00" routeLength="6984.58" waitingTime="89.00" waitingCount="2" stopTime="0.00" timeLoss="147.82" rerouteNo="0" devices="tripinfo_veh6_3" vType="DEFAULT_VEHTYPE" speedFactor="1.04" vaporized=""/>
    <tripinfo id="veh2_1" depart="25.00" departLane="-362985261#6_0" departPos="5.10" departSpeed="0.00" departDelay="0.00" arrival="448.00" arrivalLane="562430406#8_0" arrivalPos="392.55" arrivalSpeed="11.49" duration="423.00" routeLength="5882.85" waitingTime="62.00" waitingCount="2" stopTime="0.00" timeLoss="112.15" rerouteNo="0" devices="tripinfo_veh2_1" vType="DEFAULT_VEHTYPE" speedFactor="0.88" vaporized=""/>
    <tripinfo id="veh3_2" depart="25.00" departLane="729152092#2_0" departPos="5.10" departSpeed="0.00" departDelay="0.00" arrival="453.00" arrivalLane="359408298#2_0" arrivalPos="137.25" arrivalSpeed="11.42" duration="428.00" routeLength="5448.06" waitingTime="84.00" waitingCount="3" stopTime="0.00" timeLoss="130.49" rerouteNo="0" devices="tripinfo_veh3_2" vType="DEFAULT_VEHTYPE" speedFactor="0.83" vaporized=""/>
    <tripinfo id="veh2_0" depart="31.00" departLane="-359409608_0" departPos="5.10" departSpeed="0.00" departDelay="6.00" arrival="513.00" arrivalLane="-362985261#6_0" arrivalPos="61.07" arrivalSpeed="11.85" duration="482.00" routeLength="8061.59" waitingTime="36.00" waitingCount="2" stopTime="0.00" timeLoss="118.49" rerouteNo="0" devices="tripinfo_veh2_0" vType="DEFAULT_VEHTYPE" speedFactor="0.93" vaporized=""/>
    <tripinfo id="veh3_0" depart="34.00" departLane="-359409608_0" departPos="5.10" departSpeed="0.00" departDelay="9.00" arrival="550.00" arrivalLane="362985258#0_0" arrivalPos="52.30" arrivalSpeed="13.17" duration="516.00" routeLength="8746.76" waitingTime="37.00" waitingCount="1" stopTime="0.00" timeLoss="120.54" rerouteNo="0" devices="tripinfo_veh3_0" vType="DEFAULT_VEHTYPE" speedFactor="0.98" vaporized=""/>
    <tripinfo id="veh0_5" depart="25.00" departLane="363373882#0_0" departPos="5.10" departSpeed="0.00" departDelay="0.00" arrival="552.00" arrivalLane="-359408277#0_0" arrivalPos="175.18" arrivalSpeed="10.88" duration="527.00" routeLength="7895.68" waitingTime="47.00" waitingCount="2" stopTime="0.00" timeLoss="116.24" rerouteNo="0" devices="tripinfo_veh0_5" vType="DEFAULT_VEHTYPE" speedFactor="0.83" vaporized=""/>
    <tripinfo id="veh5_5" depart="25.00" departLane="539383767#1_0" departPos="5.10" departSpeed="0.00" departDelay="0.00" arrival="555.00" arrivalLane="-359409608_0" arrivalPos="135.48" arrivalSpeed="13.96" duration="530.00" routeLength="2054.82" waitingTime="358.00" waitingCount="4" stopTime="0.00" timeLoss="409.94" rerouteNo="0" devices="tripinfo_veh5_5" vType="DEFAULT_VEHTYPE" speedFactor="1.03" vaporized=""/>
    <tripinfo id="veh7_6" depart="25.00" departLane="-484446266#8_0" departPos="5.10" departSpeed="0.00" departDelay="0.00" arrival="556.00" arrivalLane="-359409608_0" arrivalPos="135.48" arrivalSpeed="14.19" duration="531.00" routeLength="2749.35" waitingTime="350.00" waitingCount="3" stopTime="0.00" timeLoss="404.78" rerouteNo="0" devices="tripinfo_veh7_6" vType="DEFAULT_VEHTYPE" speedFactor="1.10" vaporized=""/>
    <tripinfo id="veh6_4" depart="25.00" departLane="479199742#1_0" departPos="5.10" departSpeed="0.00" departDelay="0.00" arrival="579.00" arrivalLane="363002237#4_0" arrivalPos="45.42" arrivalSpeed="14.58" duration="554.00" routeLength="9103.26" waitingTime="129.00" waitingCount="6" stopTime="0.00" timeLoss="210.13" rerouteNo="0" devices="tripinfo_veh6_4" vType="DEFAULT_VEHTYPE" speedFactor="1.09" vaporized=""/>
    <tripinfo id="veh3_1" depart="25.00" departLane="362985258#0_0" departPos="5.10" departSpeed="0.00" departDelay="0.00" arrival="595.00" arrivalLane="729152092#2_0" arrivalPos="908.74" arrivalSpeed="19.66" duration="570.00" routeLength="9214.39" waitingTime="57.00" waitingCount="2" stopTime="0.00" timeLoss="128.24" rerouteNo="0" devices="tripinfo_veh3_1" vType="DEFAULT_VEHTYPE" speedFactor="0.89" vaporized=""/>
    <tripinfo id="veh4_4" depart="25.00" departLane="539383762#7_0" departPos="5.10" departSpeed="0.00" departDelay="0.00" arrival="595.00" arrivalLane="562021794#1_0" arrivalPos="11.24" arrivalSpeed="10.66" duration="570.00" routeLength="1406.82" waitingTime="458.00" waitingCount="4" stopTime="0.00" timeLoss="507.61" rerouteNo="0" devices="tripinfo_veh4_4" vType="DEFAULT_VEHTYPE" speedFactor="1.01" vaporized=""/>
    <tripinfo id="veh6_5" depart="25.00" departLane="363002237#4_0" departPos="5.10" departSpeed="0.00" departDelay="0.00" arrival="620.00" arrivalLane="-359409608_0" arrivalPos="135.48" arrivalSpeed="13.05" duration="595.00" routeLength="3956.36" waitingTime="363.00" waitingCount="2" stopTime="0.00" timeLoss="413.24" rerouteNo="0" devices="tripinfo_veh6_5" vType="DEFAULT_VEHTYPE" speedFactor="1.00" vaporized=""/>
    <tripinfo id="veh8_4" depart="25.00" departLane="676492822_0" departPos="5.10" departSpeed="0.00" departDelay="0.00" arrival="623.00" arrivalLane="-359409608_0" arrivalPos="135.48" arrivalSpeed="13.84" duration="598.00" routeLength="3553.10" waitingTime="348.00" waitingCount="3" stopTime="0.00" timeLoss="417.69" rerouteNo="0" devices="tripinfo_veh8_4" vType="DEFAULT_VEHTYPE" speedFactor="1.02" vaporized=""/>
    <tripinfo id="veh1_0" depart="28.00" departLane="-359409608_0" departPos="5.10" departSpeed="0.00" departDelay="3.00" arrival="626.00" arrivalLane="539383765#3_0" arrivalPos="264.82" arrivalSpeed="12.27" duration="598.00" routeLength="3322.53" waitingTime="350.00" waitingCount="4" stopTime="0.00" timeLoss="413.07" rerouteNo="0" devices="tripinfo_veh1_0" vType="DEFAULT_VEHTYPE" speedFactor="0.89" vaporized=""/>
    <tripinfo id="veh1_5" depart="25.00" departLane="563175147#6_0" departPos="5.10" departSpeed="0.00" departDelay="0.00" arrival="652.00" arrivalLane="563587627_0" arrivalPos="120.78" arrivalSpeed="13.50" duration="627.00" routeLength="4579.92" waitingTime="371.00" waitingCount="5" stopTime="0.00" timeLoss="428.17" rerouteNo="0" devices="tripinfo_veh1_5" vType="DEFAULT_VEHTYPE" speedFactor="1.05" vaporized=""/>
    <tripinfo id="veh6_2" depart="25.00" departLane="560361514#6_0" departPos="5.10" departSpeed="0.00" departDelay="0.00" arrival="671.00" arrivalLane="168328152#0_0" arrivalPos="48.55" arrivalSpeed="14.24" duration="646.00" routeLength="4567.55" waitingTime="412.00" waitingCount="5" stopTime="0.00" timeLoss="479.55" rerouteNo="0" devices="tripinfo_veh6_2" vType="DEFAULT_VEHTYPE" speedFactor="1.04" vaporized=""/>
    <tripinfo id="veh3_5" depart="25.00" departLane="359247300#1_0" departPos="5.10" departSpeed="0.00" departDelay="0.00" arrival="710.00" arrivalLane="-359409608_0" arrivalPos="135.48" arrivalSpeed="12.20" duration="685.00" routeLength="3871.70" waitingTime="439.00" waitingCount="3" stopTime="0.00" timeLoss="489.40" rerouteNo="0" devices="tripinfo_veh3_5" vType="DEFAULT_VEHTYPE" speedFactor="0.95" vaporized=""/>
    <tripinfo id="veh1_2" depart="25.00" departLane="362347497#7_0" departPos="5.10" departSpeed="0.00" departDelay="0.00" arrival="715.00" arrivalLane="359246993#0_0" arrivalPos="70.96" arrivalSpeed="10.75" duration="690.00" routeLength="3417.33" waitingTime="466.00" waitingCount="7" stopTime="0.00" timeLoss="520.38" rerouteNo="0" devices="tripinfo_veh1_2" vType="DEFAULT_VEHTYPE" speedFactor="0.86" vaporized=""/>
    <tripinfo id="veh8_0" depart="49.00" departLane="-359409608_0" departPos="5.10" departSpeed="0.00" departDelay="24.00" arrival="724.00" arrivalLane="539383768#0_0" arrivalPos="201.66" arrivalSpeed="27.47" duration="675.00" routeLength="4271.06" waitingTime="422.00" waitingCount="4" stopTime="0.00" timeLoss="496.75" rerouteNo="0" devices="tripinfo_veh8_0" vType="DEFAULT_VEHTYPE" speedFactor="1.00" vaporized=""/>
    <tripinfo id="veh8_2" depart="25.00" departLane="230291072_0" departPos="5.10" departSpeed="0.00" departDelay="0.00" arrival="734.00" arrivalLane="358237489#0_0" arrivalPos="86.17" arrivalSpeed="11.74" duration="709.00" routeLength="7371.24" waitingTime="264.00" waitingCount="7" stopTime="0.00" timeLoss="354.43" rerouteNo="0" devices="tripinfo_veh8_2" vType="DEFAULT_VEHTYPE" speedFactor="0.90" vaporized=""/>
    <tripinfo id="veh5_3" depart="25.00" departLane="539383768#2_0" departPos="5.10" departSpeed="0.00" departDelay="0.00" arrival="744.00" arrivalLane="-675107653#5_0" arrivalPos="68.60" arrivalSpeed="14.34" duration="719.00" routeLength="3503.39" waitingTime="523.00" waitingCount="6" stopTime="0.00" timeLoss="592.52" rerouteNo="0" devices="tripinfo_veh5_3" vType="DEFAULT_VEHTYPE" speedFactor="1.10" vaporized=""/>
    <tripinfo id="veh0_2" depart="25.00" departLane="359247813#2_0" departPos="5.10" departSpeed="0.00" departDelay="0.00" arrival="899.00" arrivalLane="781684931#0_0" arrivalPos="57.29" arrivalSpeed="13.91" duration="874.00" routeLength="7183.82" waitingTime="498.00" waitingCount="6" stopTime="0.00" timeLoss="581.33" rerouteNo="0" devices="tripinfo_veh0_2" vType="DEFAULT_VEHTYPE" speedFactor="1.01" vaporized=""/>
</tripinfos>
