<?xml version="1.0" encoding="UTF-8"?>

<!-- generated on 06/23/21 13:20:02 by Eclipse SUMO sumo Version 1.8.0
<configuration xmlns:xsi="http://www.w3.org/2001/XMLSchema-instance" xsi:noNamespaceSchemaLocation="http://sumo.dlr.de/xsd/sumoConfiguration.xsd">

    <input>
        <net-file value="2\../BSD.net.xml"/>
        <route-files value="2\bsd_002.rou.xml"/>
        <additional-files value="2\dua_dump_002.add.xml"/>
    </input>

    <output>
        <summary-output value="2\summary_002.xml"/>
        <tripinfo-output value="2\tripinfo_002.xml"/>
    </output>

    <time>
        <begin value="0"/>
    </time>

    <processing>
        <route-steps value="200"/>
        <no-internal-links value="false"/>
        <time-to-teleport value="300"/>
        <time-to-teleport.highways value="0"/>
        <eager-insert value="false"/>
    </processing>

    <report>
        <verbose value="true"/>
        <no-warnings value="false"/>
        <log value="2\iteration_002.sumo.log"/>
        <no-step-log value="true"/>
    </report>

    <random_number>
        <random value="false"/>
    </random_number>

</configuration>
-->

<tripinfos xmlns:xsi="http://www.w3.org/2001/XMLSchema-instance" xsi:noNamespaceSchemaLocation="http://sumo.dlr.de/xsd/tripinfo_file.xsd">
    <tripinfo id="veh0_2" depart="25.00" departLane="154148014#2_0" departPos="5.10" departSpeed="0.00" departDelay="0.00" arrival="53.00" arrivalLane="560361514#10_0" arrivalPos="202.28" arrivalSpeed="27.87" duration="28.00" routeLength="371.08" waitingTime="0.00" waitingCount="0" stopTime="0.00" timeLoss="13.38" rerouteNo="0" devices="tripinfo_veh0_2" vType="DEFAULT_VEHTYPE" speedFactor="1.01" vaporized=""/>
    <tripinfo id="veh5_2" depart="25.00" departLane="539383765#3_0" departPos="5.10" departSpeed="0.00" departDelay="0.00" arrival="54.00" arrivalLane="539383768#6_1" arrivalPos="45.63" arrivalSpeed="15.02" duration="29.00" routeLength="317.01" waitingTime="0.00" waitingCount="0" stopTime="0.00" timeLoss="7.63" rerouteNo="0" devices="tripinfo_veh5_2" vType="DEFAULT_VEHTYPE" speedFactor="1.01" vaporized=""/>
    <tripinfo id="veh3_4" depart="25.00" departLane="539383768#0_0" departPos="5.10" departSpeed="0.00" departDelay="0.00" arrival="59.00" arrivalLane="539383768#2_0" arrivalPos="239.65" arrivalSpeed="27.02" duration="34.00" routeLength="729.87" waitingTime="0.00" waitingCount="0" stopTime="0.00" timeLoss="7.78" rerouteNo="0" devices="tripinfo_veh3_4" vType="DEFAULT_VEHTYPE" speedFactor="1.01" vaporized=""/>
    <tripinfo id="veh3_1" depart="25.00" departLane="359247300#0_0" departPos="5.10" departSpeed="0.00" departDelay="0.00" arrival="61.00" arrivalLane="359247300#1_0" arrivalPos="219.61" arrivalSpeed="12.21" duration="36.00" routeLength="390.42" waitingTime="0.00" waitingCount="0" stopTime="0.00" timeLoss="5.82" rerouteNo="0" devices="tripinfo_veh3_1" vType="DEFAULT_VEHTYPE" speedFactor="0.94" vaporized=""/>
    <tripinfo id="veh4_2" depart="25.00" departLane="563175147#6_0" departPos="5.10" departSpeed="0.00" departDelay="0.00" arrival="65.00" arrivalLane="362347497#7_0" arrivalPos="149.91" arrivalSpeed="19.01" duration="40.00" routeLength="499.15" waitingTime="0.00" waitingCount="0" stopTime="0.00" timeLoss="11.48" rerouteNo="0" devices="tripinfo_veh4_2" vType="DEFAULT_VEHTYPE" speedFactor="0.87" vaporized=""/>
    <tripinfo id="veh2_3" depart="25.00" departLane="-675107653#5_0" departPos="5.10" departSpeed="0.00" departDelay="0.00" arrival="68.00" arrivalLane="562021790#0_1" arrivalPos="53.64" arrivalSpeed="26.47" duration="43.00" routeLength="493.46" waitingTime="0.00" waitingCount="0" stopTime="0.00" timeLoss="11.53" rerouteNo="0" devices="tripinfo_veh2_3" vType="DEFAULT_VEHTYPE" speedFactor="0.99" vaporized=""/>
    <tripinfo id="veh1_3" depart="25.00" departLane="396051491#3_0" departPos="5.10" departSpeed="0.00" departDelay="0.00" arrival="71.00" arrivalLane="766136200_1" arrivalPos="53.47" arrivalSpeed="23.75" duration="46.00" routeLength="780.92" waitingTime="0.00" waitingCount="0" stopTime="0.00" timeLoss="11.69" rerouteNo="0" devices="tripinfo_veh1_3" vType="DEFAULT_VEHTYPE" speedFactor="0.86" vaporized=""/>
    <tripinfo id="veh0_4" depart="25.00" departLane="359246993#0_0" departPos="5.10" departSpeed="0.00" departDelay="0.00" arrival="96.00" arrivalLane="-484446266#8_0" arrivalPos="248.85" arrivalSpeed="14.10" duration="71.00" routeLength="1070.99" waitingTime="0.00" waitingCount="0" stopTime="0.00" timeLoss="18.04" rerouteNo="0" devices="tripinfo_veh0_4" vType="DEFAULT_VEHTYPE" speedFactor="1.03" vaporized=""/>
    <tripinfo id="veh2_1" depart="25.00" departLane="562549612#1_0" departPos="5.10" departSpeed="0.00" departDelay="0.00" arrival="100.00" arrivalLane="676492822_0" arrivalPos="72.78" arrivalSpeed="7.47" duration="75.00" routeLength="737.46" waitingTime="0.00" waitingCount="0" stopTime="0.00" timeLoss="18.80" rerouteNo="0" devices="tripinfo_veh2_1" vType="DEFAULT_VEHTYPE" speedFactor="1.05" vaporized=""/>
    <tripinfo id="veh4_1" depart="25.00" departLane="539383762#7_0" departPos="5.10" departSpeed="0.00" departDelay="0.00" arrival="102.00" arrivalLane="563175147#6_2" arrivalPos="123.61" arrivalSpeed="17.60" duration="77.00" routeLength="1074.55" waitingTime="0.00" waitingCount="0" stopTime="0.00" timeLoss="11.83" rerouteNo="0" devices="tripinfo_veh4_1" vType="DEFAULT_VEHTYPE" speedFactor="0.83" vaporized=""/>
    <tripinfo id="veh0_3" depart="25.00" departLane="560361514#10_0" departPos="5.10" departSpeed="0.00" departDelay="0.00" arrival="115.00" arrivalLane="359246993#0_0" arrivalPos="70.96" arrivalSpeed="13.83" duration="90.00" routeLength="1212.42" waitingTime="0.00" waitingCount="0" stopTime="0.00" timeLoss="29.78" rerouteNo="0" devices="tripinfo_veh0_3" vType="DEFAULT_VEHTYPE" speedFactor="1.08" vaporized=""/>
    <tripinfo id="veh3_3" depart="25.00" departLane="230291072_0" departPos="5.10" departSpeed="0.00" departDelay="0.00" arrival="116.00" arrivalLane="539383768#0_0" arrivalPos="201.66" arrivalSpeed="27.86" duration="91.00" routeLength="1010.36" waitingTime="0.00" waitingCount="0" stopTime="0.00" timeLoss="23.41" rerouteNo="0" devices="tripinfo_veh3_3" vType="DEFAULT_VEHTYPE" speedFactor="1.02" vaporized=""/>
    <tripinfo id="veh4_4" depart="25.00" departLane="539383767#1_0" departPos="5.10" departSpeed="0.00" departDelay="0.00" arrival="117.00" arrivalLane="562430406#8_0" arrivalPos="392.55" arrivalSpeed="12.65" duration="92.00" routeLength="1038.83" waitingTime="0.00" waitingCount="0" stopTime="0.00" timeLoss="12.27" rerouteNo="0" devices="tripinfo_veh4_4" vType="DEFAULT_VEHTYPE" speedFactor="0.95" vaporized=""/>
    <tripinfo id="veh6_2" depart="28.00" departLane="562430406#8_0" departPos="5.10" departSpeed="0.00" departDelay="3.00" arrival="128.00" arrivalLane="754594908#4_0" arrivalPos="190.58" arrivalSpeed="31.85" duration="100.00" routeLength="2019.32" waitingTime="0.00" waitingCount="0" stopTime="0.00" timeLoss="23.15" rerouteNo="0" devices="tripinfo_veh6_2" vType="DEFAULT_VEHTYPE" speedFactor="1.18" vaporized=""/>
    <tripinfo id="veh0_1" depart="25.00" departLane="563587627_0" departPos="5.10" departSpeed="0.00" departDelay="0.00" arrival="131.00" arrivalLane="154148014#2_0" arrivalPos="6.55" arrivalSpeed="22.95" duration="106.00" routeLength="1075.91" waitingTime="0.00" waitingCount="0" stopTime="0.00" timeLoss="25.73" rerouteNo="0" devices="tripinfo_veh0_1" vType="DEFAULT_VEHTYPE" speedFactor="0.94" vaporized=""/>
    <tripinfo id="veh4_5" depart="25.00" departLane="562430406#8_0" departPos="5.10" departSpeed="0.00" departDelay="0.00" arrival="131.00" arrivalLane="359408298#2_0" arrivalPos="137.25" arrivalSpeed="15.00" duration="106.00" routeLength="1339.48" waitingTime="13.00" waitingCount="1" stopTime="0.00" timeLoss="39.52" rerouteNo="0" devices="tripinfo_veh4_5" vType="DEFAULT_VEHTYPE" speedFactor="1.13" vaporized=""/>
    <tripinfo id="veh4_6" depart="25.00" departLane="359408298#2_0" departPos="5.10" departSpeed="0.00" departDelay="0.00" arrival="134.00" arrivalLane="-359409608_0" arrivalPos="135.48" arrivalSpeed="12.42" duration="109.00" routeLength="1192.12" waitingTime="0.00" waitingCount="0" stopTime="0.00" timeLoss="22.46" rerouteNo="0" devices="tripinfo_veh4_6" vType="DEFAULT_VEHTYPE" speedFactor="0.93" vaporized=""/>
    <tripinfo id="veh2_4" depart="25.00" departLane="562021790#0_0" departPos="5.10" departSpeed="0.00" departDelay="0.00" arrival="139.00" arrivalLane="154148013#6_0" arrivalPos="327.33" arrivalSpeed="25.16" duration="114.00" routeLength="1375.37" waitingTime="32.00" waitingCount="2" stopTime="0.00" timeLoss="58.63" rerouteNo="0" devices="tripinfo_veh2_4" vType="DEFAULT_VEHTYPE" speedFactor="0.93" vaporized=""/>
    <tripinfo id="veh7_1" depart="25.00" departLane="398041366#1_0" departPos="5.10" departSpeed="0.00" departDelay="0.00" arrival="140.00" arrivalLane="562021794#1_0" arrivalPos="11.24" arrivalSpeed="13.09" duration="115.00" routeLength="670.83" waitingTime="47.00" waitingCount="2" stopTime="0.00" timeLoss="70.61" rerouteNo="0" devices="tripinfo_veh7_1" vType="DEFAULT_VEHTYPE" speedFactor="0.96" vaporized=""/>
    <tripinfo id="veh1_2" depart="25.00" departLane="363002237#4_0" departPos="5.10" departSpeed="0.00" departDelay="0.00" arrival="145.00" arrivalLane="396051491#3_0" arrivalPos="141.12" arrivalSpeed="25.20" duration="120.00" routeLength="1528.09" waitingTime="8.00" waitingCount="1" stopTime="0.00" timeLoss="39.45" rerouteNo="0" devices="tripinfo_veh1_2" vType="DEFAULT_VEHTYPE" speedFactor="0.94" vaporized=""/>
    <tripinfo id="veh2_2" depart="25.00" departLane="676492822_0" departPos="5.10" departSpeed="0.00" departDelay="0.00" arrival="146.00" arrivalLane="-675107653#5_0" arrivalPos="68.60" arrivalSpeed="14.60" duration="121.00" routeLength="1656.21" waitingTime="0.00" waitingCount="0" stopTime="0.00" timeLoss="28.72" rerouteNo="0" devices="tripinfo_veh2_2" vType="DEFAULT_VEHTYPE" speedFactor="1.12" vaporized=""/>
    <tripinfo id="veh4_3" depart="25.00" departLane="362347497#7_0" departPos="5.10" departSpeed="0.00" departDelay="0.00" arrival="162.00" arrivalLane="539383767#1_0" arrivalPos="58.17" arrivalSpeed="12.12" duration="137.00" routeLength="795.77" waitingTime="74.00" waitingCount="2" stopTime="0.00" timeLoss="97.04" rerouteNo="0" devices="tripinfo_veh4_3" vType="DEFAULT_VEHTYPE" speedFactor="0.92" vaporized=""/>
    <tripinfo id="veh7_2" depart="25.00" departLane="562021794#1_0" departPos="5.10" departSpeed="0.00" departDelay="0.00" arrival="163.00" arrivalLane="-359409608_0" arrivalPos="135.48" arrivalSpeed="14.72" duration="138.00" routeLength="1864.03" waitingTime="18.00" waitingCount="1" stopTime="0.00" timeLoss="56.06" rerouteNo="0" devices="tripinfo_veh7_2" vType="DEFAULT_VEHTYPE" speedFactor="1.09" vaporized=""/>
    <tripinfo id="veh5_3" depart="25.00" departLane="539383768#6_0" departPos="5.10" departSpeed="0.00" departDelay="0.00" arrival="171.00" arrivalLane="-359408277#0_0" arrivalPos="175.18" arrivalSpeed="15.95" duration="146.00" routeLength="1878.52" waitingTime="34.00" waitingCount="1" stopTime="0.00" timeLoss="73.44" rerouteNo="0" devices="tripinfo_veh5_3" vType="DEFAULT_VEHTYPE" speedFactor="1.17" vaporized=""/>
    <tripinfo id="veh2_5" depart="25.00" departLane="154148013#6_0" departPos="5.10" departSpeed="0.00" departDelay="0.00" arrival="178.00" arrivalLane="-359409608_0" arrivalPos="135.48" arrivalSpeed="11.73" duration="153.00" routeLength="1539.72" waitingTime="34.00" waitingCount="1" stopTime="0.00" timeLoss="64.99" rerouteNo="0" devices="tripinfo_veh2_5" vType="DEFAULT_VEHTYPE" speedFactor="0.88" vaporized=""/>
    <tripinfo id="veh1_4" depart="25.00" departLane="766136200_0" departPos="5.10" departSpeed="0.00" departDelay="0.00" arrival="180.00" arrivalLane="-359409608_0" arrivalPos="135.48" arrivalSpeed="14.38" duration="155.00" routeLength="2377.68" waitingTime="9.00" waitingCount="1" stopTime="0.00" timeLoss="57.27" rerouteNo="0" devices="tripinfo_veh1_4" vType="DEFAULT_VEHTYPE" speedFactor="1.09" vaporized=""/>
    <tripinfo id="veh5_4" depart="25.00" departLane="-359408277#0_0" departPos="5.10" departSpeed="0.00" departDelay="0.00" arrival="183.00" arrivalLane="-359409608_0" arrivalPos="135.48" arrivalSpeed="13.64" duration="158.00" routeLength="2489.75" waitingTime="0.00" waitingCount="0" stopTime="0.00" timeLoss="38.37" rerouteNo="0" devices="tripinfo_veh5_4" vType="DEFAULT_VEHTYPE" speedFactor="0.99" vaporized=""/>
    <tripinfo id="veh3_2" depart="25.00" departLane="359247300#1_0" departPos="5.10" departSpeed="0.00" departDelay="0.00" arrival="186.00" arrivalLane="230291072_0" arrivalPos="179.75" arrivalSpeed="15.09" duration="161.00" routeLength="2262.73" waitingTime="0.00" waitingCount="0" stopTime="0.00" timeLoss="26.35" rerouteNo="0" devices="tripinfo_veh3_2" vType="DEFAULT_VEHTYPE" speedFactor="1.16" vaporized=""/>
    <tripinfo id="veh6_1" depart="25.00" departLane="560361514#6_0" departPos="5.10" departSpeed="0.00" departDelay="0.00" arrival="187.00" arrivalLane="562430406#8_0" arrivalPos="392.55" arrivalSpeed="13.05" duration="162.00" routeLength="2642.48" waitingTime="3.00" waitingCount="1" stopTime="0.00" timeLoss="28.32" rerouteNo="0" devices="tripinfo_veh6_1" vType="DEFAULT_VEHTYPE" speedFactor="0.97" vaporized=""/>
    <tripinfo id="veh6_0" depart="43.00" departLane="-359409608_0" departPos="5.10" departSpeed="0.00" departDelay="18.00" arrival="209.00" arrivalLane="560361514#6_1" arrivalPos="442.89" arrivalSpeed="28.30" duration="166.00" routeLength="3070.66" waitingTime="1.00" waitingCount="1" stopTime="0.00" timeLoss="38.31" rerouteNo="0" devices="tripinfo_veh6_0" vType="DEFAULT_VEHTYPE" speedFactor="1.02" vaporized=""/>
    <tripinfo id="veh1_1" depart="25.00" departLane="781684931#0_0" departPos="5.10" departSpeed="0.00" departDelay="0.00" arrival="211.00" arrivalLane="363002237#4_0" arrivalPos="45.42" arrivalSpeed="11.66" duration="186.00" routeLength="3464.29" waitingTime="0.00" waitingCount="0" stopTime="0.00" timeLoss="25.95" rerouteNo="0" devices="tripinfo_veh1_1" vType="DEFAULT_VEHTYPE" speedFactor="0.89" vaporized=""/>
    <tripinfo id="veh3_0" depart="34.00" departLane="-359409608_0" departPos="5.10" departSpeed="0.00" departDelay="9.00" arrival="244.00" arrivalLane="359247300#0_0" arrivalPos="161.40" arrivalSpeed="12.24" duration="210.00" routeLength="3681.05" waitingTime="1.00" waitingCount="1" stopTime="0.00" timeLoss="40.55" rerouteNo="0" devices="tripinfo_veh3_0" vType="DEFAULT_VEHTYPE" speedFactor="0.94" vaporized=""/>
    <tripinfo id="veh6_4" depart="25.00" departLane="359247813#2_0" departPos="5.10" departSpeed="0.00" departDelay="0.00" arrival="262.00" arrivalLane="-359409608_0" arrivalPos="135.48" arrivalSpeed="11.95" duration="237.00" routeLength="2028.61" waitingTime="56.00" waitingCount="2" stopTime="0.00" timeLoss="100.73" rerouteNo="0" devices="tripinfo_veh6_4" vType="DEFAULT_VEHTYPE" speedFactor="0.90" vaporized=""/>
    <tripinfo id="veh0_5" depart="25.00" departLane="-484446266#8_0" departPos="5.10" departSpeed="0.00" departDelay="0.00" arrival="273.00" arrivalLane="-359409608_0" arrivalPos="135.48" arrivalSpeed="11.38" duration="248.00" routeLength="2749.35" waitingTime="39.00" waitingCount="3" stopTime="0.00" timeLoss="81.72" rerouteNo="0" devices="tripinfo_veh0_5" vType="DEFAULT_VEHTYPE" speedFactor="0.83" vaporized=""/>
    <tripinfo id="veh5_0" depart="40.00" departLane="-359409608_0" departPos="5.10" departSpeed="0.00" departDelay="15.00" arrival="285.00" arrivalLane="479199742#1_0" arrivalPos="409.63" arrivalSpeed="25.77" duration="245.00" routeLength="4707.16" waitingTime="16.00" waitingCount="1" stopTime="0.00" timeLoss="64.56" rerouteNo="0" devices="tripinfo_veh5_0" vType="DEFAULT_VEHTYPE" speedFactor="1.18" vaporized=""/>
    <tripinfo id="veh7_0" depart="46.00" departLane="-359409608_0" departPos="5.10" departSpeed="0.00" departDelay="21.00" arrival="291.00" arrivalLane="398041366#1_0" arrivalPos="85.07" arrivalSpeed="13.31" duration="245.00" routeLength="1594.82" waitingTime="115.00" waitingCount="3" stopTime="0.00" timeLoss="164.75" rerouteNo="0" devices="tripinfo_veh7_0" vType="DEFAULT_VEHTYPE" speedFactor="1.03" vaporized=""/>
    <tripinfo id="veh0_0" depart="25.00" departLane="-359409608_0" departPos="5.10" departSpeed="0.00" departDelay="0.00" arrival="294.00" arrivalLane="563587627_0" arrivalPos="120.78" arrivalSpeed="14.29" duration="269.00" routeLength="4332.01" waitingTime="17.00" waitingCount="1" stopTime="0.00" timeLoss="73.52" rerouteNo="0" devices="tripinfo_veh0_0" vType="DEFAULT_VEHTYPE" speedFactor="1.06" vaporized=""/>
    <tripinfo id="veh3_5" depart="25.00" departLane="539383768#2_0" departPos="5.10" departSpeed="0.00" departDelay="0.00" arrival="302.00" arrivalLane="-359409608_0" arrivalPos="135.48" arrivalSpeed="12.77" duration="277.00" routeLength="3219.35" waitingTime="91.00" waitingCount="3" stopTime="0.00" timeLoss="136.36" rerouteNo="0" devices="tripinfo_veh3_5" vType="DEFAULT_VEHTYPE" speedFactor="0.98" vaporized=""/>
    <tripinfo id="veh4_0" depart="37.00" departLane="-359409608_0" departPos="5.10" departSpeed="0.00" departDelay="12.00" arrival="308.00" arrivalLane="539383762#7_0" arrivalPos="169.23" arrivalSpeed="12.08" duration="271.00" routeLength="3319.99" waitingTime="37.00" waitingCount="1" stopTime="0.00" timeLoss="85.96" rerouteNo="0" devices="tripinfo_veh4_0" vType="DEFAULT_VEHTYPE" speedFactor="0.89" vaporized=""/>
    <tripinfo id="veh2_0" depart="31.00" departLane="-359409608_0" departPos="5.10" departSpeed="0.00" departDelay="6.00" arrival="314.00" arrivalLane="562549612#1_0" arrivalPos="393.19" arrivalSpeed="13.34" duration="283.00" routeLength="4187.59" waitingTime="8.00" waitingCount="1" stopTime="0.00" timeLoss="63.63" rerouteNo="0" devices="tripinfo_veh2_0" vType="DEFAULT_VEHTYPE" speedFactor="1.03" vaporized=""/>
    <tripinfo id="veh6_3" depart="25.00" departLane="754594908#4_0" departPos="5.10" departSpeed="0.00" departDelay="0.00" arrival="374.00" arrivalLane="359247813#2_0" arrivalPos="275.45" arrivalSpeed="14.24" duration="349.00" routeLength="2543.78" waitingTime="187.00" waitingCount="4" stopTime="0.00" timeLoss="245.88" rerouteNo="0" devices="tripinfo_veh6_3" vType="DEFAULT_VEHTYPE" speedFactor="1.10" vaporized=""/>
    <tripinfo id="veh1_0" depart="28.00" departLane="-359409608_0" departPos="5.10" departSpeed="0.00" departDelay="3.00" arrival="441.00" arrivalLane="781684931#0_0" arrivalPos="57.29" arrivalSpeed="14.40" duration="413.00" routeLength="7573.86" waitingTime="52.00" waitingCount="3" stopTime="0.00" timeLoss="127.12" rerouteNo="0" devices="tripinfo_veh1_0" vType="DEFAULT_VEHTYPE" speedFactor="1.05" vaporized=""/>
    <tripinfo id="veh5_1" depart="25.00" departLane="479199742#1_0" departPos="5.10" departSpeed="0.00" departDelay="0.00" arrival="475.00" arrivalLane="539383765#3_0" arrivalPos="264.82" arrivalSpeed="15.70" duration="450.00" routeLength="6627.51" waitingTime="127.00" waitingCount="4" stopTime="0.00" timeLoss="191.38" rerouteNo="0" devices="tripinfo_veh5_1" vType="DEFAULT_VEHTYPE" speedFactor="1.15" vaporized=""/>
</tripinfos>
